
Host: adabbott

Timers On : Fri Nov 22 15:48:35 2019
Timers Off: Fri Nov 22 15:48:36 2019

Wall Time:        0.86 seconds

                                                       Time (seconds)
Module                                       User      System        Wall        Calls

--------------------------------------------------------------------------------------

**************************************************************************************

Host: adabbott

Timers On : Fri Nov 22 16:04:45 2019
Timers Off: Fri Nov 22 16:04:46 2019

Wall Time:        0.83 seconds

                                                       Time (seconds)
Module                                       User      System        Wall        Calls

--------------------------------------------------------------------------------------

**************************************************************************************
