
Host: adabbott

Timers On : Tue Dec 17 16:44:35 2019
Timers Off: Tue Dec 17 16:44:36 2019

Wall Time:        0.59 seconds

                                                       Time (seconds)
Module                                       User      System        Wall        Calls

--------------------------------------------------------------------------------------

**************************************************************************************

Host: adabbott

Timers On : Tue Dec 17 16:45:40 2019
Timers Off: Tue Dec 17 16:45:40 2019

Wall Time:        0.60 seconds

                                                       Time (seconds)
Module                                       User      System        Wall        Calls

--------------------------------------------------------------------------------------

**************************************************************************************

Host: adabbott

Timers On : Tue Dec 17 16:45:53 2019
Timers Off: Tue Dec 17 16:46:10 2019

Wall Time:       17.27 seconds

                                                       Time (seconds)
Module                                       User      System        Wall        Calls

--------------------------------------------------------------------------------------

**************************************************************************************

Host: adabbott

Timers On : Tue Dec 17 16:54:34 2019
Timers Off: Tue Dec 17 16:54:52 2019

Wall Time:       17.87 seconds

                                                       Time (seconds)
Module                                       User      System        Wall        Calls

--------------------------------------------------------------------------------------

**************************************************************************************

Host: adabbott

Timers On : Wed Dec 18 14:57:51 2019
Timers Off: Wed Dec 18 14:58:11 2019

Wall Time:       20.66 seconds

                                                       Time (seconds)
Module                                       User      System        Wall        Calls

--------------------------------------------------------------------------------------

**************************************************************************************

Host: adabbott

Timers On : Wed Dec 18 14:58:22 2019
Timers Off: Wed Dec 18 14:58:42 2019

Wall Time:       20.78 seconds

                                                       Time (seconds)
Module                                       User      System        Wall        Calls

--------------------------------------------------------------------------------------

**************************************************************************************

Host: adabbott

Timers On : Wed Dec 18 14:59:37 2019
Timers Off: Wed Dec 18 14:59:59 2019

Wall Time:       21.43 seconds

                                                       Time (seconds)
Module                                       User      System        Wall        Calls

--------------------------------------------------------------------------------------

**************************************************************************************

Host: adabbott

Timers On : Wed Dec 18 15:01:24 2019
Timers Off: Wed Dec 18 15:01:28 2019

Wall Time:        4.01 seconds

                                                       Time (seconds)
Module                                       User      System        Wall        Calls

--------------------------------------------------------------------------------------

**************************************************************************************

Host: adabbott

Timers On : Wed Dec 18 15:01:34 2019
Timers Off: Wed Dec 18 15:02:02 2019

Wall Time:       27.76 seconds

                                                       Time (seconds)
Module                                       User      System        Wall        Calls

--------------------------------------------------------------------------------------

**************************************************************************************

Host: adabbott

Timers On : Wed Dec 18 15:04:17 2019
Timers Off: Wed Dec 18 15:10:45 2019

Wall Time:      387.76 seconds

                                                       Time (seconds)
Module                                       User      System        Wall        Calls

--------------------------------------------------------------------------------------

**************************************************************************************

Host: adabbott

Timers On : Wed Dec 18 15:22:59 2019
Timers Off: Wed Dec 18 15:24:46 2019

Wall Time:      107.00 seconds

                                                       Time (seconds)
Module                                       User      System        Wall        Calls

--------------------------------------------------------------------------------------

**************************************************************************************

Host: adabbott

Timers On : Wed Dec 18 15:44:56 2019
Timers Off: Wed Dec 18 16:01:35 2019

Wall Time:      999.21 seconds

                                                       Time (seconds)
Module                                       User      System        Wall        Calls

--------------------------------------------------------------------------------------

**************************************************************************************

Host: adabbott

Timers On : Wed Dec 18 16:03:27 2019
Timers Off: Wed Dec 18 16:16:29 2019

Wall Time:      781.69 seconds

                                                       Time (seconds)
Module                                       User      System        Wall        Calls

--------------------------------------------------------------------------------------

**************************************************************************************

Host: adabbott

Timers On : Wed Dec 18 16:25:12 2019
Timers Off: Wed Dec 18 16:25:45 2019

Wall Time:       33.46 seconds

                                                       Time (seconds)
Module                                       User      System        Wall        Calls

--------------------------------------------------------------------------------------

**************************************************************************************

Host: adabbott

Timers On : Wed Dec 18 16:25:54 2019
Timers Off: Wed Dec 18 16:26:29 2019

Wall Time:       34.54 seconds

                                                       Time (seconds)
Module                                       User      System        Wall        Calls

--------------------------------------------------------------------------------------

**************************************************************************************

Host: adabbott

Timers On : Sat Dec 28 13:23:34 2019
Timers Off: Sat Dec 28 13:24:07 2019

Wall Time:       32.78 seconds

                                                       Time (seconds)
Module                                       User      System        Wall        Calls

--------------------------------------------------------------------------------------

**************************************************************************************

Host: adabbott

Timers On : Sat Dec 28 13:25:56 2019
Timers Off: Sat Dec 28 13:26:16 2019

Wall Time:       20.16 seconds

                                                       Time (seconds)
Module                                       User      System        Wall        Calls

--------------------------------------------------------------------------------------

**************************************************************************************

Host: adabbott

Timers On : Sat Dec 28 13:27:18 2019
Timers Off: Sat Dec 28 13:29:04 2019

Wall Time:      105.60 seconds

                                                       Time (seconds)
Module                                       User      System        Wall        Calls

--------------------------------------------------------------------------------------

**************************************************************************************

Host: adabbott

Timers On : Sat Jan  4 13:21:10 2020
Timers Off: Sat Jan  4 13:23:00 2020

Wall Time:      109.46 seconds

                                                       Time (seconds)
Module                                       User      System        Wall        Calls

--------------------------------------------------------------------------------------

**************************************************************************************

Host: adabbott

Timers On : Sat Jan  4 13:29:23 2020
Timers Off: Sat Jan  4 13:46:58 2020

Wall Time:     1054.76 seconds

                                                       Time (seconds)
Module                                       User      System        Wall        Calls

--------------------------------------------------------------------------------------

**************************************************************************************

Host: adabbott

Timers On : Wed Jan  8 13:19:17 2020
Timers Off: Wed Jan  8 13:23:50 2020

Wall Time:      273.35 seconds

                                                       Time (seconds)
Module                                       User      System        Wall        Calls

--------------------------------------------------------------------------------------

**************************************************************************************

Host: adabbott

Timers On : Wed Jan  8 13:24:34 2020
Timers Off: Wed Jan  8 13:42:16 2020

Wall Time:     1062.33 seconds

                                                       Time (seconds)
Module                                       User      System        Wall        Calls

--------------------------------------------------------------------------------------

**************************************************************************************

Host: adabbott

Timers On : Sat May  9 13:59:40 2020
Timers Off: Sat May  9 14:00:16 2020

Wall Time:       36.65 seconds

                                                       Time (seconds)
Module                                       User      System        Wall        Calls

--------------------------------------------------------------------------------------

**************************************************************************************

Host: adabbott

Timers On : Sat May  9 14:00:20 2020
Timers Off: Sat May  9 14:00:43 2020

Wall Time:       22.86 seconds

                                                       Time (seconds)
Module                                       User      System        Wall        Calls

--------------------------------------------------------------------------------------

**************************************************************************************

Host: adabbott

Timers On : Sat May  9 14:01:05 2020
Timers Off: Sat May  9 14:02:33 2020

Wall Time:       88.61 seconds

                                                       Time (seconds)
Module                                       User      System        Wall        Calls

--------------------------------------------------------------------------------------

**************************************************************************************
