
Host: adabbott

Timers On : Thu Aug 20 20:55:45 2020
Timers Off: Thu Aug 20 20:55:46 2020

Wall Time:        0.29 seconds

                                                       Time (seconds)
Module                                       User      System        Wall        Calls

--------------------------------------------------------------------------------------

**************************************************************************************

Host: adabbott

Timers On : Thu Aug 20 20:56:01 2020
Timers Off: Thu Aug 20 20:56:02 2020

Wall Time:        0.33 seconds

                                                       Time (seconds)
Module                                       User      System        Wall        Calls

--------------------------------------------------------------------------------------

**************************************************************************************

Host: adabbott

Timers On : Thu Aug 20 20:56:58 2020
Timers Off: Thu Aug 20 20:56:59 2020

Wall Time:        0.43 seconds

                                                       Time (seconds)
Module                                       User      System        Wall        Calls

--------------------------------------------------------------------------------------

**************************************************************************************

Host: adabbott

Timers On : Thu Aug 20 20:57:14 2020
Timers Off: Thu Aug 20 20:57:16 2020

Wall Time:        1.08 seconds

                                                       Time (seconds)
Module                                       User      System        Wall        Calls

--------------------------------------------------------------------------------------

**************************************************************************************

Host: adabbott

Timers On : Thu Aug 20 20:57:26 2020
Timers Off: Thu Aug 20 20:57:27 2020

Wall Time:        0.94 seconds

                                                       Time (seconds)
Module                                       User      System        Wall        Calls

--------------------------------------------------------------------------------------

**************************************************************************************

Host: adabbott

Timers On : Thu Aug 20 21:12:53 2020
Timers Off: Thu Aug 20 21:12:53 2020

Wall Time:        0.29 seconds

                                                       Time (seconds)
Module                                       User      System        Wall        Calls

--------------------------------------------------------------------------------------

**************************************************************************************

Host: adabbott

Timers On : Thu Aug 20 21:13:34 2020
Timers Off: Thu Aug 20 21:13:35 2020

Wall Time:        0.92 seconds

                                                       Time (seconds)
Module                                       User      System        Wall        Calls

--------------------------------------------------------------------------------------

**************************************************************************************

Host: adabbott

Timers On : Thu Aug 20 21:16:59 2020
Timers Off: Thu Aug 20 21:17:00 2020

Wall Time:        0.93 seconds

                                                       Time (seconds)
Module                                       User      System        Wall        Calls

--------------------------------------------------------------------------------------

**************************************************************************************

Host: adabbott

Timers On : Thu Aug 20 21:19:38 2020
Timers Off: Thu Aug 20 21:19:44 2020

Wall Time:        5.94 seconds

                                                       Time (seconds)
Module                                       User      System        Wall        Calls

--------------------------------------------------------------------------------------

**************************************************************************************

Host: adabbott

Timers On : Thu Aug 20 21:23:04 2020
Timers Off: Thu Aug 20 21:23:10 2020

Wall Time:        6.02 seconds

                                                       Time (seconds)
Module                                       User      System        Wall        Calls

--------------------------------------------------------------------------------------

**************************************************************************************

Host: adabbott

Timers On : Thu Aug 20 21:24:17 2020
Timers Off: Thu Aug 20 21:24:19 2020

Wall Time:        2.06 seconds

                                                       Time (seconds)
Module                                       User      System        Wall        Calls

--------------------------------------------------------------------------------------

**************************************************************************************

Host: adabbott

Timers On : Thu Aug 20 21:24:43 2020
Timers Off: Thu Aug 20 21:24:44 2020

Wall Time:        0.90 seconds

                                                       Time (seconds)
Module                                       User      System        Wall        Calls

--------------------------------------------------------------------------------------

**************************************************************************************

Host: adabbott

Timers On : Thu Aug 20 21:24:54 2020
Timers Off: Thu Aug 20 21:24:56 2020

Wall Time:        2.06 seconds

                                                       Time (seconds)
Module                                       User      System        Wall        Calls

--------------------------------------------------------------------------------------

**************************************************************************************

Host: adabbott

Timers On : Thu Aug 20 21:25:21 2020
Timers Off: Thu Aug 20 21:25:22 2020

Wall Time:        0.91 seconds

                                                       Time (seconds)
Module                                       User      System        Wall        Calls

--------------------------------------------------------------------------------------

**************************************************************************************

Host: adabbott

Timers On : Thu Aug 20 21:25:48 2020
Timers Off: Thu Aug 20 21:25:49 2020

Wall Time:        0.90 seconds

                                                       Time (seconds)
Module                                       User      System        Wall        Calls

--------------------------------------------------------------------------------------

**************************************************************************************

Host: adabbott

Timers On : Thu Aug 20 21:26:08 2020
Timers Off: Thu Aug 20 21:26:10 2020

Wall Time:        2.06 seconds

                                                       Time (seconds)
Module                                       User      System        Wall        Calls

--------------------------------------------------------------------------------------

**************************************************************************************

Host: adabbott

Timers On : Thu Aug 20 21:32:26 2020
Timers Off: Thu Aug 20 21:32:27 2020

Wall Time:        1.04 seconds

                                                       Time (seconds)
Module                                       User      System        Wall        Calls

--------------------------------------------------------------------------------------

**************************************************************************************

Host: adabbott

Timers On : Thu Aug 20 21:32:37 2020
Timers Off: Thu Aug 20 21:32:39 2020

Wall Time:        2.15 seconds

                                                       Time (seconds)
Module                                       User      System        Wall        Calls

--------------------------------------------------------------------------------------

**************************************************************************************

Host: adabbott

Timers On : Thu Aug 20 21:34:46 2020
Timers Off: Thu Aug 20 21:34:47 2020

Wall Time:        0.92 seconds

                                                       Time (seconds)
Module                                       User      System        Wall        Calls

--------------------------------------------------------------------------------------

**************************************************************************************

Host: adabbott

Timers On : Thu Aug 20 21:35:26 2020
Timers Off: Thu Aug 20 21:35:27 2020

Wall Time:        0.93 seconds

                                                       Time (seconds)
Module                                       User      System        Wall        Calls

--------------------------------------------------------------------------------------

**************************************************************************************

Host: adabbott

Timers On : Thu Aug 20 21:37:50 2020
Timers Off: Thu Aug 20 21:37:51 2020

Wall Time:        0.98 seconds

                                                       Time (seconds)
Module                                       User      System        Wall        Calls

--------------------------------------------------------------------------------------

**************************************************************************************

Host: adabbott

Timers On : Thu Aug 20 21:38:16 2020
Timers Off: Thu Aug 20 21:38:19 2020

Wall Time:        2.68 seconds

                                                       Time (seconds)
Module                                       User      System        Wall        Calls

--------------------------------------------------------------------------------------

**************************************************************************************

Host: adabbott

Timers On : Thu Aug 20 21:38:30 2020
Timers Off: Thu Aug 20 21:38:33 2020

Wall Time:        2.69 seconds

                                                       Time (seconds)
Module                                       User      System        Wall        Calls

--------------------------------------------------------------------------------------

**************************************************************************************

Host: adabbott

Timers On : Thu Aug 20 21:40:28 2020
Timers Off: Thu Aug 20 21:40:31 2020

Wall Time:        3.55 seconds

                                                       Time (seconds)
Module                                       User      System        Wall        Calls

--------------------------------------------------------------------------------------

**************************************************************************************

Host: adabbott

Timers On : Thu Aug 20 21:41:51 2020
Timers Off: Thu Aug 20 21:41:54 2020

Wall Time:        2.70 seconds

                                                       Time (seconds)
Module                                       User      System        Wall        Calls

--------------------------------------------------------------------------------------

**************************************************************************************

Host: adabbott

Timers On : Thu Aug 20 21:42:13 2020
Timers Off: Thu Aug 20 21:42:16 2020

Wall Time:        2.70 seconds

                                                       Time (seconds)
Module                                       User      System        Wall        Calls

--------------------------------------------------------------------------------------

**************************************************************************************

Host: adabbott

Timers On : Thu Aug 20 21:42:22 2020
Timers Off: Thu Aug 20 21:42:25 2020

Wall Time:        2.69 seconds

                                                       Time (seconds)
Module                                       User      System        Wall        Calls

--------------------------------------------------------------------------------------

**************************************************************************************

Host: adabbott

Timers On : Thu Aug 20 21:45:47 2020
Timers Off: Thu Aug 20 21:45:49 2020

Wall Time:        2.06 seconds

                                                       Time (seconds)
Module                                       User      System        Wall        Calls

--------------------------------------------------------------------------------------

**************************************************************************************
