
Host: adabbott

Timers On : Tue Feb 11 13:30:19 2020
Timers Off: Tue Feb 11 13:30:20 2020

Wall Time:        0.37 seconds

                                                       Time (seconds)
Module                                       User      System        Wall        Calls

--------------------------------------------------------------------------------------

**************************************************************************************

Host: adabbott

Timers On : Tue Feb 11 13:30:52 2020
Timers Off: Tue Feb 11 13:30:53 2020

Wall Time:        0.76 seconds

                                                       Time (seconds)
Module                                       User      System        Wall        Calls

--------------------------------------------------------------------------------------

**************************************************************************************

Host: adabbott

Timers On : Tue Feb 11 13:31:06 2020
Timers Off: Tue Feb 11 13:31:07 2020

Wall Time:        0.72 seconds

                                                       Time (seconds)
Module                                       User      System        Wall        Calls

--------------------------------------------------------------------------------------

**************************************************************************************

Host: adabbott

Timers On : Tue Feb 11 13:34:36 2020
Timers Off: Tue Feb 11 13:34:36 2020

Wall Time:        0.67 seconds

                                                       Time (seconds)
Module                                       User      System        Wall        Calls

--------------------------------------------------------------------------------------

**************************************************************************************

Host: adabbott

Timers On : Tue Feb 11 13:34:43 2020
Timers Off: Tue Feb 11 13:34:44 2020

Wall Time:        0.68 seconds

                                                       Time (seconds)
Module                                       User      System        Wall        Calls

--------------------------------------------------------------------------------------

**************************************************************************************

Host: adabbott

Timers On : Tue Feb 11 13:34:57 2020
Timers Off: Tue Feb 11 13:34:58 2020

Wall Time:        0.68 seconds

                                                       Time (seconds)
Module                                       User      System        Wall        Calls

--------------------------------------------------------------------------------------

**************************************************************************************

Host: adabbott

Timers On : Tue Feb 11 13:42:18 2020
Timers Off: Tue Feb 11 13:42:19 2020

Wall Time:        0.69 seconds

                                                       Time (seconds)
Module                                       User      System        Wall        Calls

--------------------------------------------------------------------------------------

**************************************************************************************

Host: adabbott

Timers On : Tue Feb 11 13:44:57 2020
Timers Off: Tue Feb 11 13:44:58 2020

Wall Time:        0.68 seconds

                                                       Time (seconds)
Module                                       User      System        Wall        Calls

--------------------------------------------------------------------------------------

**************************************************************************************

Host: adabbott

Timers On : Tue Feb 11 13:45:04 2020
Timers Off: Tue Feb 11 13:45:05 2020

Wall Time:        0.68 seconds

                                                       Time (seconds)
Module                                       User      System        Wall        Calls

--------------------------------------------------------------------------------------

**************************************************************************************

Host: adabbott

Timers On : Tue Feb 11 13:50:32 2020
Timers Off: Tue Feb 11 13:50:33 2020

Wall Time:        0.69 seconds

                                                       Time (seconds)
Module                                       User      System        Wall        Calls

--------------------------------------------------------------------------------------

**************************************************************************************

Host: adabbott

Timers On : Tue Feb 11 13:54:38 2020
Timers Off: Tue Feb 11 13:54:38 2020

Wall Time:        0.68 seconds

                                                       Time (seconds)
Module                                       User      System        Wall        Calls

--------------------------------------------------------------------------------------

**************************************************************************************

Host: adabbott

Timers On : Tue Feb 11 13:54:47 2020
Timers Off: Tue Feb 11 13:54:47 2020

Wall Time:        0.70 seconds

                                                       Time (seconds)
Module                                       User      System        Wall        Calls

--------------------------------------------------------------------------------------

**************************************************************************************

Host: adabbott

Timers On : Tue Feb 11 13:54:55 2020
Timers Off: Tue Feb 11 13:54:56 2020

Wall Time:        1.21 seconds

                                                       Time (seconds)
Module                                       User      System        Wall        Calls

--------------------------------------------------------------------------------------

**************************************************************************************

Host: adabbott

Timers On : Tue Feb 11 14:02:48 2020
Timers Off: Tue Feb 11 14:02:49 2020

Wall Time:        1.25 seconds

                                                       Time (seconds)
Module                                       User      System        Wall        Calls

--------------------------------------------------------------------------------------

**************************************************************************************

Host: adabbott

Timers On : Tue Feb 11 14:18:54 2020
Timers Off: Tue Feb 11 14:18:55 2020

Wall Time:        1.27 seconds

                                                       Time (seconds)
Module                                       User      System        Wall        Calls

--------------------------------------------------------------------------------------

**************************************************************************************

Host: adabbott

Timers On : Tue Feb 11 14:19:01 2020
Timers Off: Tue Feb 11 14:19:03 2020

Wall Time:        1.21 seconds

                                                       Time (seconds)
Module                                       User      System        Wall        Calls

--------------------------------------------------------------------------------------

**************************************************************************************

Host: adabbott

Timers On : Tue Feb 11 14:19:11 2020
Timers Off: Tue Feb 11 14:19:12 2020

Wall Time:        1.22 seconds

                                                       Time (seconds)
Module                                       User      System        Wall        Calls

--------------------------------------------------------------------------------------

**************************************************************************************

Host: adabbott

Timers On : Tue Feb 11 14:19:31 2020
Timers Off: Tue Feb 11 14:19:32 2020

Wall Time:        1.23 seconds

                                                       Time (seconds)
Module                                       User      System        Wall        Calls

--------------------------------------------------------------------------------------

**************************************************************************************

Host: adabbott

Timers On : Tue Feb 11 14:22:27 2020
Timers Off: Tue Feb 11 14:22:28 2020

Wall Time:        1.21 seconds

                                                       Time (seconds)
Module                                       User      System        Wall        Calls

--------------------------------------------------------------------------------------

**************************************************************************************

Host: adabbott

Timers On : Tue Feb 11 14:23:03 2020
Timers Off: Tue Feb 11 14:23:03 2020

Wall Time:        0.68 seconds

                                                       Time (seconds)
Module                                       User      System        Wall        Calls

--------------------------------------------------------------------------------------

**************************************************************************************

Host: adabbott

Timers On : Tue Feb 11 14:23:15 2020
Timers Off: Tue Feb 11 14:23:16 2020

Wall Time:        1.20 seconds

                                                       Time (seconds)
Module                                       User      System        Wall        Calls

--------------------------------------------------------------------------------------

**************************************************************************************

Host: adabbott

Timers On : Tue Feb 11 14:26:44 2020
Timers Off: Tue Feb 11 14:26:45 2020

Wall Time:        1.21 seconds

                                                       Time (seconds)
Module                                       User      System        Wall        Calls

--------------------------------------------------------------------------------------

**************************************************************************************

Host: adabbott

Timers On : Tue Feb 11 14:27:04 2020
Timers Off: Tue Feb 11 14:27:05 2020

Wall Time:        1.23 seconds

                                                       Time (seconds)
Module                                       User      System        Wall        Calls

--------------------------------------------------------------------------------------

**************************************************************************************

Host: adabbott

Timers On : Tue Feb 11 14:27:59 2020
Timers Off: Tue Feb 11 14:28:00 2020

Wall Time:        1.22 seconds

                                                       Time (seconds)
Module                                       User      System        Wall        Calls

--------------------------------------------------------------------------------------

**************************************************************************************

Host: adabbott

Timers On : Tue Feb 11 14:54:01 2020
Timers Off: Tue Feb 11 14:54:02 2020

Wall Time:        1.27 seconds

                                                       Time (seconds)
Module                                       User      System        Wall        Calls

--------------------------------------------------------------------------------------

**************************************************************************************

Host: adabbott

Timers On : Tue Feb 11 14:54:53 2020
Timers Off: Tue Feb 11 14:54:54 2020

Wall Time:        1.28 seconds

                                                       Time (seconds)
Module                                       User      System        Wall        Calls

--------------------------------------------------------------------------------------

**************************************************************************************

Host: adabbott

Timers On : Tue Feb 11 15:10:09 2020
Timers Off: Tue Feb 11 15:10:11 2020

Wall Time:        1.11 seconds

                                                       Time (seconds)
Module                                       User      System        Wall        Calls

--------------------------------------------------------------------------------------

**************************************************************************************

Host: adabbott

Timers On : Tue Feb 11 15:10:53 2020
Timers Off: Tue Feb 11 15:10:55 2020

Wall Time:        1.65 seconds

                                                       Time (seconds)
Module                                       User      System        Wall        Calls

--------------------------------------------------------------------------------------

**************************************************************************************

Host: adabbott

Timers On : Tue Feb 11 15:11:11 2020
Timers Off: Tue Feb 11 15:11:13 2020

Wall Time:        1.71 seconds

                                                       Time (seconds)
Module                                       User      System        Wall        Calls

--------------------------------------------------------------------------------------

**************************************************************************************

Host: adabbott

Timers On : Tue Feb 11 15:11:37 2020
Timers Off: Tue Feb 11 15:11:39 2020

Wall Time:        1.65 seconds

                                                       Time (seconds)
Module                                       User      System        Wall        Calls

--------------------------------------------------------------------------------------

**************************************************************************************

Host: adabbott

Timers On : Tue Feb 11 15:12:00 2020
Timers Off: Tue Feb 11 15:12:02 2020

Wall Time:        1.71 seconds

                                                       Time (seconds)
Module                                       User      System        Wall        Calls

--------------------------------------------------------------------------------------

**************************************************************************************

Host: adabbott

Timers On : Tue Feb 11 15:12:17 2020
Timers Off: Tue Feb 11 15:12:19 2020

Wall Time:        1.72 seconds

                                                       Time (seconds)
Module                                       User      System        Wall        Calls

--------------------------------------------------------------------------------------

**************************************************************************************

Host: adabbott

Timers On : Tue Feb 11 15:17:51 2020
Timers Off: Tue Feb 11 15:17:53 2020

Wall Time:        1.77 seconds

                                                       Time (seconds)
Module                                       User      System        Wall        Calls

--------------------------------------------------------------------------------------

**************************************************************************************

Host: adabbott

Timers On : Tue Feb 11 15:18:11 2020
Timers Off: Tue Feb 11 15:18:13 2020

Wall Time:        1.78 seconds

                                                       Time (seconds)
Module                                       User      System        Wall        Calls

--------------------------------------------------------------------------------------

**************************************************************************************

Host: adabbott

Timers On : Tue Feb 11 16:42:00 2020
Timers Off: Tue Feb 11 16:42:01 2020

Wall Time:        1.90 seconds

                                                       Time (seconds)
Module                                       User      System        Wall        Calls

--------------------------------------------------------------------------------------

**************************************************************************************

Host: adabbott

Timers On : Tue Feb 11 16:43:51 2020
Timers Off: Tue Feb 11 16:43:53 2020

Wall Time:        1.86 seconds

                                                       Time (seconds)
Module                                       User      System        Wall        Calls

--------------------------------------------------------------------------------------

**************************************************************************************

Host: adabbott

Timers On : Tue Feb 11 16:45:49 2020
Timers Off: Tue Feb 11 16:45:49 2020

Wall Time:        0.72 seconds

                                                       Time (seconds)
Module                                       User      System        Wall        Calls

--------------------------------------------------------------------------------------

**************************************************************************************

Host: adabbott

Timers On : Tue Feb 11 16:45:58 2020
Timers Off: Tue Feb 11 16:45:58 2020

Wall Time:        0.72 seconds

                                                       Time (seconds)
Module                                       User      System        Wall        Calls

--------------------------------------------------------------------------------------

**************************************************************************************

Host: adabbott

Timers On : Tue Feb 11 16:47:02 2020
Timers Off: Tue Feb 11 16:47:04 2020

Wall Time:        1.78 seconds

                                                       Time (seconds)
Module                                       User      System        Wall        Calls

--------------------------------------------------------------------------------------

**************************************************************************************

Host: adabbott

Timers On : Tue Feb 11 16:47:51 2020
Timers Off: Tue Feb 11 16:47:53 2020

Wall Time:        1.79 seconds

                                                       Time (seconds)
Module                                       User      System        Wall        Calls

--------------------------------------------------------------------------------------

**************************************************************************************

Host: adabbott

Timers On : Tue Feb 11 16:48:49 2020
Timers Off: Tue Feb 11 16:48:51 2020

Wall Time:        1.82 seconds

                                                       Time (seconds)
Module                                       User      System        Wall        Calls

--------------------------------------------------------------------------------------

**************************************************************************************

Host: adabbott

Timers On : Tue Feb 11 16:49:41 2020
Timers Off: Tue Feb 11 16:49:43 2020

Wall Time:        2.45 seconds

                                                       Time (seconds)
Module                                       User      System        Wall        Calls

--------------------------------------------------------------------------------------

**************************************************************************************

Host: adabbott

Timers On : Tue Feb 11 16:55:17 2020
Timers Off: Tue Feb 11 16:55:19 2020

Wall Time:        2.47 seconds

                                                       Time (seconds)
Module                                       User      System        Wall        Calls

--------------------------------------------------------------------------------------

**************************************************************************************

Host: adabbott

Timers On : Tue Feb 11 16:55:40 2020
Timers Off: Tue Feb 11 16:55:42 2020

Wall Time:        2.48 seconds

                                                       Time (seconds)
Module                                       User      System        Wall        Calls

--------------------------------------------------------------------------------------

**************************************************************************************

Host: adabbott

Timers On : Tue Feb 11 17:15:13 2020
Timers Off: Tue Feb 11 17:15:15 2020

Wall Time:        2.10 seconds

                                                       Time (seconds)
Module                                       User      System        Wall        Calls

--------------------------------------------------------------------------------------

**************************************************************************************

Host: adabbott

Timers On : Tue Feb 11 17:17:43 2020
Timers Off: Tue Feb 11 17:17:45 2020

Wall Time:        2.10 seconds

                                                       Time (seconds)
Module                                       User      System        Wall        Calls

--------------------------------------------------------------------------------------

**************************************************************************************

Host: adabbott

Timers On : Tue Feb 11 17:28:16 2020
Timers Off: Tue Feb 11 17:28:18 2020

Wall Time:        2.16 seconds

                                                       Time (seconds)
Module                                       User      System        Wall        Calls

--------------------------------------------------------------------------------------

**************************************************************************************

Host: adabbott

Timers On : Tue Feb 11 17:31:51 2020
Timers Off: Tue Feb 11 17:31:53 2020

Wall Time:        1.75 seconds

                                                       Time (seconds)
Module                                       User      System        Wall        Calls

--------------------------------------------------------------------------------------

**************************************************************************************

Host: adabbott

Timers On : Tue Feb 11 17:33:53 2020
Timers Off: Tue Feb 11 17:33:55 2020

Wall Time:        1.80 seconds

                                                       Time (seconds)
Module                                       User      System        Wall        Calls

--------------------------------------------------------------------------------------

**************************************************************************************

Host: adabbott

Timers On : Tue Feb 11 17:34:43 2020
Timers Off: Tue Feb 11 17:34:44 2020

Wall Time:        1.70 seconds

                                                       Time (seconds)
Module                                       User      System        Wall        Calls

--------------------------------------------------------------------------------------

**************************************************************************************

Host: adabbott

Timers On : Tue Feb 11 17:34:56 2020
Timers Off: Tue Feb 11 17:34:58 2020

Wall Time:        1.73 seconds

                                                       Time (seconds)
Module                                       User      System        Wall        Calls

--------------------------------------------------------------------------------------

**************************************************************************************

Host: adabbott

Timers On : Wed Feb 12 11:07:28 2020
Timers Off: Wed Feb 12 11:07:30 2020

Wall Time:        1.71 seconds

                                                       Time (seconds)
Module                                       User      System        Wall        Calls

--------------------------------------------------------------------------------------

**************************************************************************************

Host: adabbott

Timers On : Wed Feb 12 11:08:08 2020
Timers Off: Wed Feb 12 11:08:09 2020

Wall Time:        1.70 seconds

                                                       Time (seconds)
Module                                       User      System        Wall        Calls

--------------------------------------------------------------------------------------

**************************************************************************************

Host: adabbott

Timers On : Wed Feb 12 11:08:53 2020
Timers Off: Wed Feb 12 11:08:55 2020

Wall Time:        1.75 seconds

                                                       Time (seconds)
Module                                       User      System        Wall        Calls

--------------------------------------------------------------------------------------

**************************************************************************************

Host: adabbott

Timers On : Wed Feb 12 11:09:17 2020
Timers Off: Wed Feb 12 11:09:19 2020

Wall Time:        1.70 seconds

                                                       Time (seconds)
Module                                       User      System        Wall        Calls

--------------------------------------------------------------------------------------

**************************************************************************************

Host: adabbott

Timers On : Wed Feb 12 12:07:37 2020
Timers Off: Wed Feb 12 12:07:39 2020

Wall Time:        1.70 seconds

                                                       Time (seconds)
Module                                       User      System        Wall        Calls

--------------------------------------------------------------------------------------

**************************************************************************************

Host: adabbott

Timers On : Wed Feb 12 12:14:30 2020
Timers Off: Wed Feb 12 12:14:32 2020

Wall Time:        1.69 seconds

                                                       Time (seconds)
Module                                       User      System        Wall        Calls

--------------------------------------------------------------------------------------

**************************************************************************************

Host: adabbott

Timers On : Wed Feb 12 12:17:36 2020
Timers Off: Wed Feb 12 12:17:38 2020

Wall Time:        1.73 seconds

                                                       Time (seconds)
Module                                       User      System        Wall        Calls

--------------------------------------------------------------------------------------

**************************************************************************************

Host: adabbott

Timers On : Wed Feb 12 12:18:16 2020
Timers Off: Wed Feb 12 12:18:18 2020

Wall Time:        1.73 seconds

                                                       Time (seconds)
Module                                       User      System        Wall        Calls

--------------------------------------------------------------------------------------

**************************************************************************************

Host: adabbott

Timers On : Wed Feb 12 12:18:45 2020
Timers Off: Wed Feb 12 12:18:46 2020

Wall Time:        1.82 seconds

                                                       Time (seconds)
Module                                       User      System        Wall        Calls

--------------------------------------------------------------------------------------

**************************************************************************************

Host: adabbott

Timers On : Wed Feb 12 12:20:39 2020
Timers Off: Wed Feb 12 12:20:41 2020

Wall Time:        1.77 seconds

                                                       Time (seconds)
Module                                       User      System        Wall        Calls

--------------------------------------------------------------------------------------

**************************************************************************************

Host: adabbott

Timers On : Wed Feb 12 12:22:31 2020
Timers Off: Wed Feb 12 12:22:32 2020

Wall Time:        1.74 seconds

                                                       Time (seconds)
Module                                       User      System        Wall        Calls

--------------------------------------------------------------------------------------

**************************************************************************************

Host: adabbott

Timers On : Wed Feb 12 12:25:13 2020
Timers Off: Wed Feb 12 12:25:15 2020

Wall Time:        1.81 seconds

                                                       Time (seconds)
Module                                       User      System        Wall        Calls

--------------------------------------------------------------------------------------

**************************************************************************************

Host: adabbott

Timers On : Wed Feb 12 12:25:53 2020
Timers Off: Wed Feb 12 12:25:55 2020

Wall Time:        1.83 seconds

                                                       Time (seconds)
Module                                       User      System        Wall        Calls

--------------------------------------------------------------------------------------

**************************************************************************************

Host: adabbott

Timers On : Wed Feb 12 12:27:26 2020
Timers Off: Wed Feb 12 12:27:31 2020

Wall Time:        5.40 seconds

                                                       Time (seconds)
Module                                       User      System        Wall        Calls

--------------------------------------------------------------------------------------

**************************************************************************************

Host: adabbott

Timers On : Wed Feb 12 12:30:23 2020
Timers Off: Wed Feb 12 12:30:40 2020

Wall Time:       17.12 seconds

                                                       Time (seconds)
Module                                       User      System        Wall        Calls

--------------------------------------------------------------------------------------

**************************************************************************************

Host: adabbott

Timers On : Wed Feb 12 12:31:01 2020
Timers Off: Wed Feb 12 12:31:18 2020

Wall Time:       16.51 seconds

                                                       Time (seconds)
Module                                       User      System        Wall        Calls

--------------------------------------------------------------------------------------

**************************************************************************************

Host: adabbott

Timers On : Wed Feb 12 12:38:08 2020
Timers Off: Wed Feb 12 12:38:10 2020

Wall Time:        1.82 seconds

                                                       Time (seconds)
Module                                       User      System        Wall        Calls

--------------------------------------------------------------------------------------

**************************************************************************************

Host: adabbott

Timers On : Wed Feb 12 12:38:18 2020
Timers Off: Wed Feb 12 12:38:20 2020

Wall Time:        1.87 seconds

                                                       Time (seconds)
Module                                       User      System        Wall        Calls

--------------------------------------------------------------------------------------

**************************************************************************************

Host: adabbott

Timers On : Wed Feb 12 12:38:35 2020
Timers Off: Wed Feb 12 12:38:37 2020

Wall Time:        1.89 seconds

                                                       Time (seconds)
Module                                       User      System        Wall        Calls

--------------------------------------------------------------------------------------

**************************************************************************************

Host: adabbott

Timers On : Wed Feb 12 12:39:08 2020
Timers Off: Wed Feb 12 12:39:10 2020

Wall Time:        1.88 seconds

                                                       Time (seconds)
Module                                       User      System        Wall        Calls

--------------------------------------------------------------------------------------

**************************************************************************************

Host: adabbott

Timers On : Wed Feb 12 12:39:15 2020
Timers Off: Wed Feb 12 12:39:16 2020

Wall Time:        1.79 seconds

                                                       Time (seconds)
Module                                       User      System        Wall        Calls

--------------------------------------------------------------------------------------

**************************************************************************************

Host: adabbott

Timers On : Wed Feb 12 12:40:39 2020
Timers Off: Wed Feb 12 12:40:41 2020

Wall Time:        1.92 seconds

                                                       Time (seconds)
Module                                       User      System        Wall        Calls

--------------------------------------------------------------------------------------

**************************************************************************************

Host: adabbott

Timers On : Wed Feb 12 12:41:55 2020
Timers Off: Wed Feb 12 12:41:57 2020

Wall Time:        1.90 seconds

                                                       Time (seconds)
Module                                       User      System        Wall        Calls

--------------------------------------------------------------------------------------

**************************************************************************************

Host: adabbott

Timers On : Wed Feb 12 12:43:36 2020
Timers Off: Wed Feb 12 12:43:38 2020

Wall Time:        1.87 seconds

                                                       Time (seconds)
Module                                       User      System        Wall        Calls

--------------------------------------------------------------------------------------

**************************************************************************************

Host: adabbott

Timers On : Wed Feb 12 12:43:55 2020
Timers Off: Wed Feb 12 12:43:57 2020

Wall Time:        1.89 seconds

                                                       Time (seconds)
Module                                       User      System        Wall        Calls

--------------------------------------------------------------------------------------

**************************************************************************************

Host: adabbott

Timers On : Wed Feb 12 12:44:12 2020
Timers Off: Wed Feb 12 12:44:14 2020

Wall Time:        1.87 seconds

                                                       Time (seconds)
Module                                       User      System        Wall        Calls

--------------------------------------------------------------------------------------

**************************************************************************************

Host: adabbott

Timers On : Wed Feb 12 12:44:37 2020
Timers Off: Wed Feb 12 12:45:06 2020

Wall Time:       29.59 seconds

                                                       Time (seconds)
Module                                       User      System        Wall        Calls

--------------------------------------------------------------------------------------

**************************************************************************************

Host: adabbott

Timers On : Wed Feb 12 12:53:04 2020
Timers Off: Wed Feb 12 12:53:20 2020

Wall Time:       15.76 seconds

                                                       Time (seconds)
Module                                       User      System        Wall        Calls

--------------------------------------------------------------------------------------

**************************************************************************************

Host: adabbott

Timers On : Wed Feb 12 12:53:29 2020
Timers Off: Wed Feb 12 12:53:53 2020

Wall Time:       23.64 seconds

                                                       Time (seconds)
Module                                       User      System        Wall        Calls

--------------------------------------------------------------------------------------

**************************************************************************************

Host: adabbott

Timers On : Wed Feb 12 12:54:20 2020
Timers Off: Wed Feb 12 12:54:44 2020

Wall Time:       23.79 seconds

                                                       Time (seconds)
Module                                       User      System        Wall        Calls

--------------------------------------------------------------------------------------

**************************************************************************************

Host: adabbott

Timers On : Wed Feb 12 12:55:26 2020
Timers Off: Wed Feb 12 12:55:55 2020

Wall Time:       28.85 seconds

                                                       Time (seconds)
Module                                       User      System        Wall        Calls

--------------------------------------------------------------------------------------

**************************************************************************************

Host: adabbott

Timers On : Wed Feb 12 12:59:20 2020
Timers Off: Wed Feb 12 12:59:22 2020

Wall Time:        1.89 seconds

                                                       Time (seconds)
Module                                       User      System        Wall        Calls

--------------------------------------------------------------------------------------

**************************************************************************************

Host: adabbott

Timers On : Wed Feb 12 12:59:57 2020
Timers Off: Wed Feb 12 13:00:13 2020

Wall Time:       15.88 seconds

                                                       Time (seconds)
Module                                       User      System        Wall        Calls

--------------------------------------------------------------------------------------

**************************************************************************************

Host: adabbott

Timers On : Wed Feb 12 13:07:35 2020
Timers Off: Wed Feb 12 13:07:51 2020

Wall Time:       16.05 seconds

                                                       Time (seconds)
Module                                       User      System        Wall        Calls

--------------------------------------------------------------------------------------

**************************************************************************************

Host: adabbott

Timers On : Wed Feb 12 13:08:49 2020
Timers Off: Wed Feb 12 13:09:05 2020

Wall Time:       15.57 seconds

                                                       Time (seconds)
Module                                       User      System        Wall        Calls

--------------------------------------------------------------------------------------

**************************************************************************************

Host: adabbott

Timers On : Wed Feb 12 13:12:15 2020
Timers Off: Wed Feb 12 13:12:31 2020

Wall Time:       16.17 seconds

                                                       Time (seconds)
Module                                       User      System        Wall        Calls

--------------------------------------------------------------------------------------

**************************************************************************************

Host: adabbott

Timers On : Wed Feb 12 13:12:53 2020
Timers Off: Wed Feb 12 13:14:36 2020

Wall Time:      103.42 seconds

                                                       Time (seconds)
Module                                       User      System        Wall        Calls

--------------------------------------------------------------------------------------

**************************************************************************************

Host: adabbott

Timers On : Wed Feb 12 13:15:04 2020
Timers Off: Wed Feb 12 13:15:35 2020

Wall Time:       30.33 seconds

                                                       Time (seconds)
Module                                       User      System        Wall        Calls

--------------------------------------------------------------------------------------

**************************************************************************************

Host: adabbott

Timers On : Wed Feb 12 13:18:14 2020
Timers Off: Wed Feb 12 13:18:43 2020

Wall Time:       28.87 seconds

                                                       Time (seconds)
Module                                       User      System        Wall        Calls

--------------------------------------------------------------------------------------

**************************************************************************************

Host: adabbott

Timers On : Wed Feb 12 13:20:03 2020
Timers Off: Wed Feb 12 13:21:50 2020

Wall Time:      106.80 seconds

                                                       Time (seconds)
Module                                       User      System        Wall        Calls

--------------------------------------------------------------------------------------

**************************************************************************************

Host: adabbott

Timers On : Wed Feb 12 13:22:55 2020
Timers Off: Wed Feb 12 13:22:57 2020

Wall Time:        1.90 seconds

                                                       Time (seconds)
Module                                       User      System        Wall        Calls

--------------------------------------------------------------------------------------

**************************************************************************************

Host: adabbott

Timers On : Wed Feb 12 13:23:11 2020
Timers Off: Wed Feb 12 13:23:41 2020

Wall Time:       29.93 seconds

                                                       Time (seconds)
Module                                       User      System        Wall        Calls

--------------------------------------------------------------------------------------

**************************************************************************************

Host: adabbott

Timers On : Wed Feb 12 13:35:19 2020
Timers Off: Wed Feb 12 13:35:21 2020

Wall Time:        1.94 seconds

                                                       Time (seconds)
Module                                       User      System        Wall        Calls

--------------------------------------------------------------------------------------

**************************************************************************************

Host: adabbott

Timers On : Wed Feb 12 13:35:34 2020
Timers Off: Wed Feb 12 13:35:36 2020

Wall Time:        1.92 seconds

                                                       Time (seconds)
Module                                       User      System        Wall        Calls

--------------------------------------------------------------------------------------

**************************************************************************************

Host: adabbott

Timers On : Wed Feb 12 13:35:44 2020
Timers Off: Wed Feb 12 13:35:46 2020

Wall Time:        1.92 seconds

                                                       Time (seconds)
Module                                       User      System        Wall        Calls

--------------------------------------------------------------------------------------

**************************************************************************************

Host: adabbott

Timers On : Wed Feb 12 13:41:21 2020
Timers Off: Wed Feb 12 13:41:46 2020

Wall Time:       25.14 seconds

                                                       Time (seconds)
Module                                       User      System        Wall        Calls

--------------------------------------------------------------------------------------

**************************************************************************************

Host: adabbott

Timers On : Wed Feb 12 13:44:34 2020
Timers Off: Wed Feb 12 13:46:19 2020

Wall Time:      105.29 seconds

                                                       Time (seconds)
Module                                       User      System        Wall        Calls

--------------------------------------------------------------------------------------

**************************************************************************************

Host: adabbott

Timers On : Wed Feb 12 13:47:27 2020
Timers Off: Wed Feb 12 13:47:42 2020

Wall Time:       15.89 seconds

                                                       Time (seconds)
Module                                       User      System        Wall        Calls

--------------------------------------------------------------------------------------

**************************************************************************************

Host: adabbott

Timers On : Wed Feb 12 13:48:05 2020
Timers Off: Wed Feb 12 13:48:44 2020

Wall Time:       39.18 seconds

                                                       Time (seconds)
Module                                       User      System        Wall        Calls

--------------------------------------------------------------------------------------

**************************************************************************************

Host: adabbott

Timers On : Wed Feb 12 13:49:37 2020
Timers Off: Wed Feb 12 13:49:52 2020

Wall Time:       15.68 seconds

                                                       Time (seconds)
Module                                       User      System        Wall        Calls

--------------------------------------------------------------------------------------

**************************************************************************************

Host: adabbott

Timers On : Wed Feb 12 13:50:02 2020
Timers Off: Wed Feb 12 13:51:07 2020

Wall Time:       65.44 seconds

                                                       Time (seconds)
Module                                       User      System        Wall        Calls

--------------------------------------------------------------------------------------

**************************************************************************************

Host: adabbott

Timers On : Wed Feb 12 13:52:06 2020
Timers Off: Wed Feb 12 13:52:35 2020

Wall Time:       29.05 seconds

                                                       Time (seconds)
Module                                       User      System        Wall        Calls

--------------------------------------------------------------------------------------

**************************************************************************************

Host: adabbott

Timers On : Wed Feb 12 13:53:10 2020
Timers Off: Wed Feb 12 13:53:48 2020

Wall Time:       38.50 seconds

                                                       Time (seconds)
Module                                       User      System        Wall        Calls

--------------------------------------------------------------------------------------

**************************************************************************************

Host: adabbott

Timers On : Wed Feb 12 13:54:08 2020
Timers Off: Wed Feb 12 13:54:47 2020

Wall Time:       38.58 seconds

                                                       Time (seconds)
Module                                       User      System        Wall        Calls

--------------------------------------------------------------------------------------

**************************************************************************************

Host: adabbott

Timers On : Wed Feb 12 13:55:33 2020
Timers Off: Wed Feb 12 13:56:39 2020

Wall Time:       65.76 seconds

                                                       Time (seconds)
Module                                       User      System        Wall        Calls

--------------------------------------------------------------------------------------

**************************************************************************************

Host: adabbott

Timers On : Wed Feb 12 13:56:59 2020
Timers Off: Wed Feb 12 13:58:05 2020

Wall Time:       65.74 seconds

                                                       Time (seconds)
Module                                       User      System        Wall        Calls

--------------------------------------------------------------------------------------

**************************************************************************************

Host: adabbott

Timers On : Wed Feb 12 13:58:55 2020
Timers Off: Wed Feb 12 14:00:02 2020

Wall Time:       67.50 seconds

                                                       Time (seconds)
Module                                       User      System        Wall        Calls

--------------------------------------------------------------------------------------

**************************************************************************************

Host: adabbott

Timers On : Wed Feb 12 14:00:20 2020
Timers Off: Wed Feb 12 14:00:48 2020

Wall Time:       28.45 seconds

                                                       Time (seconds)
Module                                       User      System        Wall        Calls

--------------------------------------------------------------------------------------

**************************************************************************************

Host: adabbott

Timers On : Wed Feb 12 14:01:30 2020
Timers Off: Wed Feb 12 14:01:59 2020

Wall Time:       28.37 seconds

                                                       Time (seconds)
Module                                       User      System        Wall        Calls

--------------------------------------------------------------------------------------

**************************************************************************************

Host: adabbott

Timers On : Wed Feb 12 14:07:34 2020
Timers Off: Wed Feb 12 14:08:39 2020

Wall Time:       64.05 seconds

                                                       Time (seconds)
Module                                       User      System        Wall        Calls

--------------------------------------------------------------------------------------

**************************************************************************************

Host: adabbott

Timers On : Wed Feb 12 14:09:28 2020
Timers Off: Wed Feb 12 14:10:21 2020

Wall Time:       52.84 seconds

                                                       Time (seconds)
Module                                       User      System        Wall        Calls

--------------------------------------------------------------------------------------

**************************************************************************************

Host: adabbott

Timers On : Wed Feb 12 14:13:13 2020
Timers Off: Wed Feb 12 14:14:17 2020

Wall Time:       64.32 seconds

                                                       Time (seconds)
Module                                       User      System        Wall        Calls

--------------------------------------------------------------------------------------

**************************************************************************************

Host: adabbott

Timers On : Wed Feb 12 14:15:55 2020
Timers Off: Wed Feb 12 14:15:56 2020

Wall Time:        1.85 seconds

                                                       Time (seconds)
Module                                       User      System        Wall        Calls

--------------------------------------------------------------------------------------

**************************************************************************************

Host: adabbott

Timers On : Wed Feb 12 14:16:10 2020
Timers Off: Wed Feb 12 14:16:12 2020

Wall Time:        1.89 seconds

                                                       Time (seconds)
Module                                       User      System        Wall        Calls

--------------------------------------------------------------------------------------

**************************************************************************************

Host: adabbott

Timers On : Wed Feb 12 14:16:17 2020
Timers Off: Wed Feb 12 14:16:19 2020

Wall Time:        1.90 seconds

                                                       Time (seconds)
Module                                       User      System        Wall        Calls

--------------------------------------------------------------------------------------

**************************************************************************************

Host: adabbott

Timers On : Wed Feb 12 14:22:53 2020
Timers Off: Wed Feb 12 14:22:55 2020

Wall Time:        1.99 seconds

                                                       Time (seconds)
Module                                       User      System        Wall        Calls

--------------------------------------------------------------------------------------

**************************************************************************************

Host: adabbott

Timers On : Wed Feb 12 17:50:10 2020
Timers Off: Wed Feb 12 17:50:11 2020

Wall Time:        1.90 seconds

                                                       Time (seconds)
Module                                       User      System        Wall        Calls

--------------------------------------------------------------------------------------

**************************************************************************************

Host: adabbott

Timers On : Wed Feb 12 17:52:09 2020
Timers Off: Wed Feb 12 17:52:11 2020

Wall Time:        1.88 seconds

                                                       Time (seconds)
Module                                       User      System        Wall        Calls

--------------------------------------------------------------------------------------

**************************************************************************************

Host: adabbott

Timers On : Wed Feb 12 17:53:28 2020
Timers Off: Wed Feb 12 17:53:30 2020

Wall Time:        2.00 seconds

                                                       Time (seconds)
Module                                       User      System        Wall        Calls

--------------------------------------------------------------------------------------

**************************************************************************************

Host: adabbott

Timers On : Wed Feb 12 17:56:48 2020
Timers Off: Wed Feb 12 17:56:50 2020

Wall Time:        1.92 seconds

                                                       Time (seconds)
Module                                       User      System        Wall        Calls

--------------------------------------------------------------------------------------

**************************************************************************************

Host: adabbott

Timers On : Wed Feb 12 18:00:07 2020
Timers Off: Wed Feb 12 18:00:09 2020

Wall Time:        1.95 seconds

                                                       Time (seconds)
Module                                       User      System        Wall        Calls

--------------------------------------------------------------------------------------

**************************************************************************************

Host: adabbott

Timers On : Wed Feb 12 18:01:08 2020
Timers Off: Wed Feb 12 18:01:30 2020

Wall Time:       22.46 seconds

                                                       Time (seconds)
Module                                       User      System        Wall        Calls

--------------------------------------------------------------------------------------

**************************************************************************************

Host: adabbott

Timers On : Wed Feb 12 18:06:10 2020
Timers Off: Wed Feb 12 18:07:52 2020

Wall Time:      102.07 seconds

                                                       Time (seconds)
Module                                       User      System        Wall        Calls

--------------------------------------------------------------------------------------

**************************************************************************************

Host: adabbott

Timers On : Wed Feb 12 18:08:12 2020
Timers Off: Wed Feb 12 18:08:17 2020

Wall Time:        4.17 seconds

                                                       Time (seconds)
Module                                       User      System        Wall        Calls

--------------------------------------------------------------------------------------

**************************************************************************************

Host: adabbott

Timers On : Wed Feb 12 18:09:26 2020
Timers Off: Wed Feb 12 18:11:15 2020

Wall Time:      108.54 seconds

                                                       Time (seconds)
Module                                       User      System        Wall        Calls

--------------------------------------------------------------------------------------

**************************************************************************************

Host: adabbott

Timers On : Wed Feb 12 18:15:05 2020
Timers Off: Wed Feb 12 18:15:07 2020

Wall Time:        1.87 seconds

                                                       Time (seconds)
Module                                       User      System        Wall        Calls

--------------------------------------------------------------------------------------

**************************************************************************************

Host: adabbott

Timers On : Wed Feb 12 18:15:22 2020
Timers Off: Wed Feb 12 18:15:23 2020

Wall Time:        1.95 seconds

                                                       Time (seconds)
Module                                       User      System        Wall        Calls

--------------------------------------------------------------------------------------

**************************************************************************************

Host: adabbott

Timers On : Wed Feb 12 18:15:37 2020
Timers Off: Wed Feb 12 18:15:41 2020

Wall Time:        4.42 seconds

                                                       Time (seconds)
Module                                       User      System        Wall        Calls

--------------------------------------------------------------------------------------

**************************************************************************************

Host: adabbott

Timers On : Wed Feb 12 18:18:03 2020
Timers Off: Wed Feb 12 18:18:26 2020

Wall Time:       22.68 seconds

                                                       Time (seconds)
Module                                       User      System        Wall        Calls

--------------------------------------------------------------------------------------

**************************************************************************************

Host: adabbott

Timers On : Wed Feb 12 18:18:38 2020
Timers Off: Wed Feb 12 18:19:01 2020

Wall Time:       22.56 seconds

                                                       Time (seconds)
Module                                       User      System        Wall        Calls

--------------------------------------------------------------------------------------

**************************************************************************************

Host: adabbott

Timers On : Wed Feb 12 18:19:18 2020
Timers Off: Wed Feb 12 18:19:41 2020

Wall Time:       22.82 seconds

                                                       Time (seconds)
Module                                       User      System        Wall        Calls

--------------------------------------------------------------------------------------

**************************************************************************************

Host: adabbott

Timers On : Wed Feb 12 18:19:57 2020
Timers Off: Wed Feb 12 18:19:59 2020

Wall Time:        1.91 seconds

                                                       Time (seconds)
Module                                       User      System        Wall        Calls

--------------------------------------------------------------------------------------

**************************************************************************************

Host: adabbott

Timers On : Wed Feb 12 18:20:18 2020
Timers Off: Wed Feb 12 18:20:41 2020

Wall Time:       22.79 seconds

                                                       Time (seconds)
Module                                       User      System        Wall        Calls

--------------------------------------------------------------------------------------

**************************************************************************************

Host: adabbott

Timers On : Wed Feb 12 18:22:13 2020
Timers Off: Wed Feb 12 18:22:37 2020

Wall Time:       23.80 seconds

                                                       Time (seconds)
Module                                       User      System        Wall        Calls

--------------------------------------------------------------------------------------

**************************************************************************************

Host: adabbott

Timers On : Thu Feb 13 11:33:20 2020
Timers Off: Thu Feb 13 11:33:44 2020

Wall Time:       23.28 seconds

                                                       Time (seconds)
Module                                       User      System        Wall        Calls

--------------------------------------------------------------------------------------

**************************************************************************************

Host: adabbott

Timers On : Thu Feb 13 11:40:12 2020
Timers Off: Thu Feb 13 11:40:14 2020

Wall Time:        1.89 seconds

                                                       Time (seconds)
Module                                       User      System        Wall        Calls

--------------------------------------------------------------------------------------

**************************************************************************************

Host: adabbott

Timers On : Thu Feb 13 11:41:39 2020
Timers Off: Thu Feb 13 11:42:43 2020

Wall Time:       63.93 seconds

                                                       Time (seconds)
Module                                       User      System        Wall        Calls

--------------------------------------------------------------------------------------

**************************************************************************************

Host: adabbott

Timers On : Thu Feb 13 11:47:57 2020
Timers Off: Thu Feb 13 11:49:01 2020

Wall Time:       63.71 seconds

                                                       Time (seconds)
Module                                       User      System        Wall        Calls

--------------------------------------------------------------------------------------

**************************************************************************************

Host: adabbott

Timers On : Thu Feb 13 11:57:59 2020
Timers Off: Thu Feb 13 11:58:55 2020

Wall Time:       56.25 seconds

                                                       Time (seconds)
Module                                       User      System        Wall        Calls

--------------------------------------------------------------------------------------

**************************************************************************************

Host: adabbott

Timers On : Thu Feb 13 11:59:15 2020
Timers Off: Thu Feb 13 12:01:45 2020

Wall Time:      149.56 seconds

                                                       Time (seconds)
Module                                       User      System        Wall        Calls

--------------------------------------------------------------------------------------

**************************************************************************************

Host: adabbott

Timers On : Thu Feb 13 12:02:28 2020
Timers Off: Thu Feb 13 12:05:01 2020

Wall Time:      153.14 seconds

                                                       Time (seconds)
Module                                       User      System        Wall        Calls

--------------------------------------------------------------------------------------

**************************************************************************************

Host: adabbott

Timers On : Thu Feb 13 12:05:49 2020
Timers Off: Thu Feb 13 12:08:21 2020

Wall Time:      151.70 seconds

                                                       Time (seconds)
Module                                       User      System        Wall        Calls

--------------------------------------------------------------------------------------

**************************************************************************************

Host: adabbott

Timers On : Thu Feb 13 12:11:22 2020
Timers Off: Thu Feb 13 12:11:49 2020

Wall Time:       26.90 seconds

                                                       Time (seconds)
Module                                       User      System        Wall        Calls

--------------------------------------------------------------------------------------

**************************************************************************************

Host: adabbott

Timers On : Thu Feb 13 17:26:20 2020
Timers Off: Thu Feb 13 17:26:45 2020

Wall Time:       25.57 seconds

                                                       Time (seconds)
Module                                       User      System        Wall        Calls

--------------------------------------------------------------------------------------

**************************************************************************************

Host: adabbott

Timers On : Thu Feb 13 17:35:48 2020
Timers Off: Thu Feb 13 17:35:55 2020

Wall Time:        7.71 seconds

                                                       Time (seconds)
Module                                       User      System        Wall        Calls

--------------------------------------------------------------------------------------

**************************************************************************************

Host: adabbott

Timers On : Thu Feb 13 17:36:15 2020
Timers Off: Thu Feb 13 17:36:27 2020

Wall Time:       11.78 seconds

                                                       Time (seconds)
Module                                       User      System        Wall        Calls

--------------------------------------------------------------------------------------

**************************************************************************************

Host: adabbott

Timers On : Thu Feb 13 17:38:35 2020
Timers Off: Thu Feb 13 17:38:53 2020

Wall Time:       17.82 seconds

                                                       Time (seconds)
Module                                       User      System        Wall        Calls

--------------------------------------------------------------------------------------

**************************************************************************************

Host: adabbott

Timers On : Thu Feb 13 17:41:41 2020
Timers Off: Thu Feb 13 17:42:07 2020

Wall Time:       25.88 seconds

                                                       Time (seconds)
Module                                       User      System        Wall        Calls

--------------------------------------------------------------------------------------

**************************************************************************************

Host: adabbott

Timers On : Fri Feb 14 12:24:03 2020
Timers Off: Fri Feb 14 12:24:05 2020

Wall Time:        2.00 seconds

                                                       Time (seconds)
Module                                       User      System        Wall        Calls

--------------------------------------------------------------------------------------

**************************************************************************************

Host: adabbott

Timers On : Fri Feb 14 12:24:27 2020
Timers Off: Fri Feb 14 12:24:43 2020

Wall Time:       16.26 seconds

                                                       Time (seconds)
Module                                       User      System        Wall        Calls

--------------------------------------------------------------------------------------

**************************************************************************************

Host: adabbott

Timers On : Fri Feb 14 13:00:53 2020
Timers Off: Fri Feb 14 13:01:05 2020

Wall Time:       12.23 seconds

                                                       Time (seconds)
Module                                       User      System        Wall        Calls

--------------------------------------------------------------------------------------

**************************************************************************************

Host: adabbott

Timers On : Fri Feb 14 13:03:33 2020
Timers Off: Fri Feb 14 13:03:42 2020

Wall Time:        8.45 seconds

                                                       Time (seconds)
Module                                       User      System        Wall        Calls

--------------------------------------------------------------------------------------

**************************************************************************************

Host: adabbott

Timers On : Fri Feb 14 13:06:24 2020
Timers Off: Fri Feb 14 13:06:33 2020

Wall Time:        8.30 seconds

                                                       Time (seconds)
Module                                       User      System        Wall        Calls

--------------------------------------------------------------------------------------

**************************************************************************************

Host: adabbott

Timers On : Fri Feb 14 13:07:09 2020
Timers Off: Fri Feb 14 13:07:18 2020

Wall Time:        8.62 seconds

                                                       Time (seconds)
Module                                       User      System        Wall        Calls

--------------------------------------------------------------------------------------

**************************************************************************************

Host: adabbott

Timers On : Fri Feb 14 13:09:13 2020
Timers Off: Fri Feb 14 13:09:21 2020

Wall Time:        8.77 seconds

                                                       Time (seconds)
Module                                       User      System        Wall        Calls

--------------------------------------------------------------------------------------

**************************************************************************************

Host: adabbott

Timers On : Fri Feb 14 13:10:59 2020
Timers Off: Fri Feb 14 13:11:08 2020

Wall Time:        8.42 seconds

                                                       Time (seconds)
Module                                       User      System        Wall        Calls

--------------------------------------------------------------------------------------

**************************************************************************************

Host: adabbott

Timers On : Fri Feb 14 13:14:26 2020
Timers Off: Fri Feb 14 13:14:34 2020

Wall Time:        8.65 seconds

                                                       Time (seconds)
Module                                       User      System        Wall        Calls

--------------------------------------------------------------------------------------

**************************************************************************************

Host: adabbott

Timers On : Fri Feb 14 13:18:21 2020
Timers Off: Fri Feb 14 13:18:30 2020

Wall Time:        8.61 seconds

                                                       Time (seconds)
Module                                       User      System        Wall        Calls

--------------------------------------------------------------------------------------

**************************************************************************************

Host: adabbott

Timers On : Fri Feb 14 13:20:05 2020
Timers Off: Fri Feb 14 13:20:12 2020

Wall Time:        7.78 seconds

                                                       Time (seconds)
Module                                       User      System        Wall        Calls

--------------------------------------------------------------------------------------

**************************************************************************************

Host: adabbott

Timers On : Mon May 25 16:18:27 2020
Timers Off: Mon May 25 16:18:38 2020

Wall Time:       11.20 seconds

                                                       Time (seconds)
Module                                       User      System        Wall        Calls

--------------------------------------------------------------------------------------

**************************************************************************************

Host: adabbott

Timers On : Mon May 25 16:18:52 2020
Timers Off: Mon May 25 16:19:03 2020

Wall Time:       11.06 seconds

                                                       Time (seconds)
Module                                       User      System        Wall        Calls

--------------------------------------------------------------------------------------

**************************************************************************************
