
Host: adabbott

Timers On : Tue Dec 17 16:40:35 2019
Timers Off: Tue Dec 17 16:40:35 2019

Wall Time:        0.63 seconds

                                                       Time (seconds)
Module                                       User      System        Wall        Calls

--------------------------------------------------------------------------------------

**************************************************************************************

Host: adabbott

Timers On : Tue Dec 17 16:42:56 2019
Timers Off: Tue Dec 17 16:42:57 2019

Wall Time:        0.67 seconds

                                                       Time (seconds)
Module                                       User      System        Wall        Calls

--------------------------------------------------------------------------------------

**************************************************************************************

Host: adabbott

Timers On : Tue Dec 17 16:43:12 2019
Timers Off: Tue Dec 17 16:43:13 2019

Wall Time:        0.76 seconds

                                                       Time (seconds)
Module                                       User      System        Wall        Calls

--------------------------------------------------------------------------------------

**************************************************************************************

Host: adabbott

Timers On : Tue Dec 17 16:43:23 2019
Timers Off: Tue Dec 17 16:43:39 2019

Wall Time:       15.93 seconds

                                                       Time (seconds)
Module                                       User      System        Wall        Calls

--------------------------------------------------------------------------------------

**************************************************************************************

Host: adabbott

Timers On : Tue Dec 17 16:46:30 2019
Timers Off: Tue Dec 17 16:46:47 2019

Wall Time:       16.69 seconds

                                                       Time (seconds)
Module                                       User      System        Wall        Calls

--------------------------------------------------------------------------------------

**************************************************************************************

Host: adabbott

Timers On : Tue Dec 17 16:55:18 2019
Timers Off: Tue Dec 17 16:55:36 2019

Wall Time:       17.64 seconds

                                                       Time (seconds)
Module                                       User      System        Wall        Calls

--------------------------------------------------------------------------------------

**************************************************************************************

Host: adabbott

Timers On : Tue Dec 17 16:55:53 2019
Timers Off: Tue Dec 17 16:56:09 2019

Wall Time:       16.24 seconds

                                                       Time (seconds)
Module                                       User      System        Wall        Calls

--------------------------------------------------------------------------------------

**************************************************************************************

Host: adabbott

Timers On : Tue Dec 17 16:57:04 2019
Timers Off: Tue Dec 17 16:57:21 2019

Wall Time:       17.52 seconds

                                                       Time (seconds)
Module                                       User      System        Wall        Calls

--------------------------------------------------------------------------------------

**************************************************************************************

Host: adabbott

Timers On : Tue Dec 17 16:58:12 2019
Timers Off: Tue Dec 17 16:58:29 2019

Wall Time:       17.51 seconds

                                                       Time (seconds)
Module                                       User      System        Wall        Calls

--------------------------------------------------------------------------------------

**************************************************************************************

Host: adabbott

Timers On : Tue Dec 17 16:59:43 2019
Timers Off: Tue Dec 17 17:00:01 2019

Wall Time:       17.94 seconds

                                                       Time (seconds)
Module                                       User      System        Wall        Calls

--------------------------------------------------------------------------------------

**************************************************************************************

Host: adabbott

Timers On : Tue Dec 17 17:19:37 2019
Timers Off: Tue Dec 17 17:19:59 2019

Wall Time:       21.99 seconds

                                                       Time (seconds)
Module                                       User      System        Wall        Calls

--------------------------------------------------------------------------------------

**************************************************************************************

Host: adabbott

Timers On : Tue Dec 17 17:20:14 2019
Timers Off: Tue Dec 17 17:20:36 2019

Wall Time:       21.70 seconds

                                                       Time (seconds)
Module                                       User      System        Wall        Calls

--------------------------------------------------------------------------------------

**************************************************************************************

Host: adabbott

Timers On : Tue Dec 17 18:28:58 2019
Timers Off: Tue Dec 17 18:29:02 2019

Wall Time:        3.57 seconds

                                                       Time (seconds)
Module                                       User      System        Wall        Calls

--------------------------------------------------------------------------------------

**************************************************************************************

Host: adabbott

Timers On : Tue Dec 17 18:29:16 2019
Timers Off: Tue Dec 17 18:29:20 2019

Wall Time:        3.59 seconds

                                                       Time (seconds)
Module                                       User      System        Wall        Calls

--------------------------------------------------------------------------------------

**************************************************************************************

Host: adabbott

Timers On : Tue Dec 17 18:29:33 2019
Timers Off: Tue Dec 17 18:29:36 2019

Wall Time:        3.59 seconds

                                                       Time (seconds)
Module                                       User      System        Wall        Calls

--------------------------------------------------------------------------------------

**************************************************************************************

Host: adabbott

Timers On : Tue Dec 17 18:30:06 2019
Timers Off: Tue Dec 17 18:30:10 2019

Wall Time:        3.62 seconds

                                                       Time (seconds)
Module                                       User      System        Wall        Calls

--------------------------------------------------------------------------------------

**************************************************************************************

Host: adabbott

Timers On : Tue Dec 17 18:38:45 2019
Timers Off: Tue Dec 17 18:38:49 2019

Wall Time:        3.53 seconds

                                                       Time (seconds)
Module                                       User      System        Wall        Calls

--------------------------------------------------------------------------------------

**************************************************************************************

Host: adabbott

Timers On : Tue Dec 17 18:38:58 2019
Timers Off: Tue Dec 17 18:39:19 2019

Wall Time:       21.45 seconds

                                                       Time (seconds)
Module                                       User      System        Wall        Calls

--------------------------------------------------------------------------------------

**************************************************************************************

Host: adabbott

Timers On : Tue Dec 17 18:40:30 2019
Timers Off: Tue Dec 17 18:40:52 2019

Wall Time:       22.02 seconds

                                                       Time (seconds)
Module                                       User      System        Wall        Calls

--------------------------------------------------------------------------------------

**************************************************************************************

Host: adabbott

Timers On : Tue Dec 17 18:43:52 2019
Timers Off: Tue Dec 17 18:43:53 2019

Wall Time:        0.59 seconds

                                                       Time (seconds)
Module                                       User      System        Wall        Calls

--------------------------------------------------------------------------------------

**************************************************************************************

Host: adabbott

Timers On : Tue Dec 17 18:44:08 2019
Timers Off: Tue Dec 17 18:46:29 2019

Wall Time:      141.30 seconds

                                                       Time (seconds)
Module                                       User      System        Wall        Calls

--------------------------------------------------------------------------------------

**************************************************************************************

Host: adabbott

Timers On : Tue Dec 17 18:47:47 2019
Timers Off: Tue Dec 17 18:55:23 2019

Wall Time:      455.33 seconds

                                                       Time (seconds)
Module                                       User      System        Wall        Calls

--------------------------------------------------------------------------------------

**************************************************************************************

Host: adabbott

Timers On : Wed Dec 18 13:21:36 2019
Timers Off: Wed Dec 18 13:35:51 2019

Wall Time:      855.14 seconds

                                                       Time (seconds)
Module                                       User      System        Wall        Calls

--------------------------------------------------------------------------------------

**************************************************************************************

Host: adabbott

Timers On : Wed Dec 18 13:40:36 2019
Timers Off: Wed Dec 18 13:53:07 2019

Wall Time:      750.45 seconds

                                                       Time (seconds)
Module                                       User      System        Wall        Calls

--------------------------------------------------------------------------------------

**************************************************************************************

Host: adabbott

Timers On : Sat Dec 28 13:31:31 2019
Timers Off: Sat Dec 28 13:31:32 2019

Wall Time:        0.75 seconds

                                                       Time (seconds)
Module                                       User      System        Wall        Calls

--------------------------------------------------------------------------------------

**************************************************************************************

Host: adabbott

Timers On : Sat Dec 28 13:31:59 2019
Timers Off: Sat Dec 28 13:34:02 2019

Wall Time:      123.53 seconds

                                                       Time (seconds)
Module                                       User      System        Wall        Calls

--------------------------------------------------------------------------------------

**************************************************************************************

Host: adabbott

Timers On : Sat Jan  4 13:17:58 2020
Timers Off: Sat Jan  4 13:18:20 2020

Wall Time:       21.81 seconds

                                                       Time (seconds)
Module                                       User      System        Wall        Calls

--------------------------------------------------------------------------------------

**************************************************************************************

Host: adabbott

Timers On : Sat Jan  4 13:18:30 2020
Timers Off: Sat Jan  4 13:20:47 2020

Wall Time:      136.11 seconds

                                                       Time (seconds)
Module                                       User      System        Wall        Calls

--------------------------------------------------------------------------------------

**************************************************************************************

Host: adabbott

Timers On : Wed Jan  8 12:53:14 2020
Timers Off: Wed Jan  8 12:53:35 2020

Wall Time:       21.14 seconds

                                                       Time (seconds)
Module                                       User      System        Wall        Calls

--------------------------------------------------------------------------------------

**************************************************************************************

Host: adabbott

Timers On : Wed Jan  8 12:53:43 2020
Timers Off: Wed Jan  8 12:56:11 2020

Wall Time:      148.51 seconds

                                                       Time (seconds)
Module                                       User      System        Wall        Calls

--------------------------------------------------------------------------------------

**************************************************************************************

Host: adabbott

Timers On : Wed Jan  8 12:57:25 2020
Timers Off: Wed Jan  8 13:07:08 2020

Wall Time:      583.00 seconds

                                                       Time (seconds)
Module                                       User      System        Wall        Calls

--------------------------------------------------------------------------------------

**************************************************************************************
