
Host: adabbott

Timers On : Fri Nov  8 13:15:48 2019
Timers Off: Fri Nov  8 13:15:49 2019

Wall Time:        0.55 seconds

                                                       Time (seconds)
Module                                       User      System        Wall        Calls

--------------------------------------------------------------------------------------

**************************************************************************************

Host: adabbott

Timers On : Fri Nov  8 13:16:05 2019
Timers Off: Fri Nov  8 13:16:06 2019

Wall Time:        0.56 seconds

                                                       Time (seconds)
Module                                       User      System        Wall        Calls

--------------------------------------------------------------------------------------

**************************************************************************************

Host: adabbott

Timers On : Fri Nov  8 16:36:38 2019
Timers Off: Fri Nov  8 16:36:38 2019

Wall Time:        0.45 seconds

                                                       Time (seconds)
Module                                       User      System        Wall        Calls

--------------------------------------------------------------------------------------

**************************************************************************************

Host: adabbott

Timers On : Fri Nov  8 16:38:21 2019
Timers Off: Fri Nov  8 16:38:21 2019

Wall Time:        0.44 seconds

                                                       Time (seconds)
Module                                       User      System        Wall        Calls

--------------------------------------------------------------------------------------

**************************************************************************************

Host: adabbott

Timers On : Fri Nov  8 16:38:50 2019
Timers Off: Fri Nov  8 16:38:50 2019

Wall Time:        0.44 seconds

                                                       Time (seconds)
Module                                       User      System        Wall        Calls

--------------------------------------------------------------------------------------

**************************************************************************************

Host: adabbott

Timers On : Fri Nov  8 16:39:07 2019
Timers Off: Fri Nov  8 16:39:08 2019

Wall Time:        0.56 seconds

                                                       Time (seconds)
Module                                       User      System        Wall        Calls

--------------------------------------------------------------------------------------

**************************************************************************************

Host: adabbott

Timers On : Tue Nov 19 23:41:01 2019
Timers Off: Tue Nov 19 23:41:02 2019

Wall Time:        0.69 seconds

                                                       Time (seconds)
Module                                       User      System        Wall        Calls

--------------------------------------------------------------------------------------

**************************************************************************************

Host: adabbott

Timers On : Tue Nov 19 23:41:13 2019
Timers Off: Tue Nov 19 23:41:14 2019

Wall Time:        0.72 seconds

                                                       Time (seconds)
Module                                       User      System        Wall        Calls

--------------------------------------------------------------------------------------

**************************************************************************************

Host: adabbott

Timers On : Tue Nov 19 23:41:36 2019
Timers Off: Tue Nov 19 23:41:37 2019

Wall Time:        0.72 seconds

                                                       Time (seconds)
Module                                       User      System        Wall        Calls

--------------------------------------------------------------------------------------

**************************************************************************************

Host: adabbott

Timers On : Tue Nov 19 23:42:12 2019
Timers Off: Tue Nov 19 23:42:12 2019

Wall Time:        0.76 seconds

                                                       Time (seconds)
Module                                       User      System        Wall        Calls

--------------------------------------------------------------------------------------

**************************************************************************************

Host: adabbott

Timers On : Tue Nov 19 23:42:46 2019
Timers Off: Tue Nov 19 23:42:46 2019

Wall Time:        0.76 seconds

                                                       Time (seconds)
Module                                       User      System        Wall        Calls

--------------------------------------------------------------------------------------

**************************************************************************************

Host: adabbott

Timers On : Tue Nov 19 23:43:21 2019
Timers Off: Tue Nov 19 23:43:26 2019

Wall Time:        5.06 seconds

                                                       Time (seconds)
Module                                       User      System        Wall        Calls

--------------------------------------------------------------------------------------

**************************************************************************************

Host: adabbott

Timers On : Tue Nov 19 23:43:30 2019
Timers Off: Tue Nov 19 23:43:35 2019

Wall Time:        5.08 seconds

                                                       Time (seconds)
Module                                       User      System        Wall        Calls

--------------------------------------------------------------------------------------

**************************************************************************************

Host: adabbott

Timers On : Tue Nov 19 23:47:16 2019
Timers Off: Tue Nov 19 23:47:21 2019

Wall Time:        5.20 seconds

                                                       Time (seconds)
Module                                       User      System        Wall        Calls

--------------------------------------------------------------------------------------

**************************************************************************************

Host: adabbott

Timers On : Wed Nov 20 00:12:02 2019
Timers Off: Wed Nov 20 00:12:08 2019

Wall Time:        5.20 seconds

                                                       Time (seconds)
Module                                       User      System        Wall        Calls

--------------------------------------------------------------------------------------

**************************************************************************************

Host: adabbott

Timers On : Wed Nov 20 00:15:07 2019
Timers Off: Wed Nov 20 00:15:12 2019

Wall Time:        5.01 seconds

                                                       Time (seconds)
Module                                       User      System        Wall        Calls

--------------------------------------------------------------------------------------

**************************************************************************************
