
Host: adabbott

Timers On : Tue Jun 23 13:41:09 2020
Timers Off: Tue Jun 23 13:41:14 2020

Wall Time:        5.77 seconds

                                                       Time (seconds)
Module                                       User      System        Wall        Calls

--------------------------------------------------------------------------------------

**************************************************************************************

Host: adabbott

Timers On : Tue Jun 23 13:41:25 2020
Timers Off: Tue Jun 23 13:42:33 2020

Wall Time:       67.81 seconds

                                                       Time (seconds)
Module                                       User      System        Wall        Calls

--------------------------------------------------------------------------------------

**************************************************************************************

Host: adabbott

Timers On : Tue Jun 23 15:36:58 2020
Timers Off: Tue Jun 23 15:38:37 2020

Wall Time:       99.47 seconds

                                                       Time (seconds)
Module                                       User      System        Wall        Calls

--------------------------------------------------------------------------------------

**************************************************************************************

Host: adabbott

Timers On : Tue Jun 23 15:48:18 2020
Timers Off: Tue Jun 23 15:49:54 2020

Wall Time:       96.16 seconds

                                                       Time (seconds)
Module                                       User      System        Wall        Calls

--------------------------------------------------------------------------------------

**************************************************************************************
