
Host: adabbott

Timers On : Wed Dec 11 18:28:36 2019
Timers Off: Wed Dec 11 18:28:39 2019

Wall Time:        2.36 seconds

                                                       Time (seconds)
Module                                       User      System        Wall        Calls

--------------------------------------------------------------------------------------

**************************************************************************************

Host: adabbott

Timers On : Wed Dec 11 18:32:00 2019
Timers Off: Wed Dec 11 18:32:03 2019

Wall Time:        2.93 seconds

                                                       Time (seconds)
Module                                       User      System        Wall        Calls

--------------------------------------------------------------------------------------

**************************************************************************************

Host: adabbott

Timers On : Wed Dec 11 18:33:44 2019
Timers Off: Wed Dec 11 18:33:47 2019

Wall Time:        2.88 seconds

                                                       Time (seconds)
Module                                       User      System        Wall        Calls

--------------------------------------------------------------------------------------

**************************************************************************************

Host: adabbott

Timers On : Wed Dec 11 18:36:11 2019
Timers Off: Wed Dec 11 18:36:15 2019

Wall Time:        3.92 seconds

                                                       Time (seconds)
Module                                       User      System        Wall        Calls

--------------------------------------------------------------------------------------

**************************************************************************************

Host: adabbott

Timers On : Wed Dec 11 18:37:30 2019
Timers Off: Wed Dec 11 18:37:32 2019

Wall Time:        2.35 seconds

                                                       Time (seconds)
Module                                       User      System        Wall        Calls

--------------------------------------------------------------------------------------

**************************************************************************************

Host: adabbott

Timers On : Wed Dec 11 18:38:31 2019
Timers Off: Wed Dec 11 18:38:33 2019

Wall Time:        2.33 seconds

                                                       Time (seconds)
Module                                       User      System        Wall        Calls

--------------------------------------------------------------------------------------

**************************************************************************************

Host: adabbott

Timers On : Wed Dec 11 18:39:09 2019
Timers Off: Wed Dec 11 18:39:12 2019

Wall Time:        2.37 seconds

                                                       Time (seconds)
Module                                       User      System        Wall        Calls

--------------------------------------------------------------------------------------

**************************************************************************************

Host: adabbott

Timers On : Wed Dec 11 18:39:37 2019
Timers Off: Wed Dec 11 18:39:40 2019

Wall Time:        2.36 seconds

                                                       Time (seconds)
Module                                       User      System        Wall        Calls

--------------------------------------------------------------------------------------

**************************************************************************************

Host: adabbott

Timers On : Wed Dec 11 18:39:49 2019
Timers Off: Wed Dec 11 18:39:53 2019

Wall Time:        3.95 seconds

                                                       Time (seconds)
Module                                       User      System        Wall        Calls

--------------------------------------------------------------------------------------

**************************************************************************************

Host: adabbott

Timers On : Wed Dec 11 18:40:23 2019
Timers Off: Wed Dec 11 18:40:27 2019

Wall Time:        3.89 seconds

                                                       Time (seconds)
Module                                       User      System        Wall        Calls

--------------------------------------------------------------------------------------

**************************************************************************************

Host: adabbott

Timers On : Wed Dec 11 18:40:50 2019
Timers Off: Wed Dec 11 18:40:54 2019

Wall Time:        3.94 seconds

                                                       Time (seconds)
Module                                       User      System        Wall        Calls

--------------------------------------------------------------------------------------

**************************************************************************************

Host: adabbott

Timers On : Wed Dec 11 18:42:34 2019
Timers Off: Wed Dec 11 18:42:37 2019

Wall Time:        2.97 seconds

                                                       Time (seconds)
Module                                       User      System        Wall        Calls

--------------------------------------------------------------------------------------

**************************************************************************************

Host: adabbott

Timers On : Wed Dec 11 18:42:49 2019
Timers Off: Wed Dec 11 18:42:53 2019

Wall Time:        3.95 seconds

                                                       Time (seconds)
Module                                       User      System        Wall        Calls

--------------------------------------------------------------------------------------

**************************************************************************************

Host: adabbott

Timers On : Wed Dec 11 18:43:03 2019
Timers Off: Wed Dec 11 18:43:07 2019

Wall Time:        3.92 seconds

                                                       Time (seconds)
Module                                       User      System        Wall        Calls

--------------------------------------------------------------------------------------

**************************************************************************************

Host: adabbott

Timers On : Wed Dec 11 18:43:57 2019
Timers Off: Wed Dec 11 18:44:01 2019

Wall Time:        3.92 seconds

                                                       Time (seconds)
Module                                       User      System        Wall        Calls

--------------------------------------------------------------------------------------

**************************************************************************************

Host: adabbott

Timers On : Wed Dec 11 18:45:56 2019
Timers Off: Wed Dec 11 18:45:58 2019

Wall Time:        2.34 seconds

                                                       Time (seconds)
Module                                       User      System        Wall        Calls

--------------------------------------------------------------------------------------

**************************************************************************************

Host: adabbott

Timers On : Wed Dec 11 18:48:03 2019
Timers Off: Wed Dec 11 18:48:14 2019

Wall Time:       11.22 seconds

                                                       Time (seconds)
Module                                       User      System        Wall        Calls

--------------------------------------------------------------------------------------

**************************************************************************************

Host: adabbott

Timers On : Wed Dec 11 18:49:28 2019
Timers Off: Wed Dec 11 18:50:03 2019

Wall Time:       34.97 seconds

                                                       Time (seconds)
Module                                       User      System        Wall        Calls

--------------------------------------------------------------------------------------

**************************************************************************************

Host: adabbott

Timers On : Wed Dec 11 18:50:25 2019
Timers Off: Wed Dec 11 18:54:31 2019

Wall Time:      246.43 seconds

                                                       Time (seconds)
Module                                       User      System        Wall        Calls

--------------------------------------------------------------------------------------

**************************************************************************************

Host: adabbott

Timers On : Wed Dec 11 18:55:39 2019
Timers Off: Wed Dec 11 18:56:31 2019

Wall Time:       51.47 seconds

                                                       Time (seconds)
Module                                       User      System        Wall        Calls

--------------------------------------------------------------------------------------

**************************************************************************************

Host: adabbott

Timers On : Wed Dec 11 19:02:18 2019
Timers Off: Wed Dec 11 19:02:20 2019

Wall Time:        1.16 seconds

                                                       Time (seconds)
Module                                       User      System        Wall        Calls

--------------------------------------------------------------------------------------

**************************************************************************************

Host: adabbott

Timers On : Wed Dec 11 19:02:37 2019
Timers Off: Wed Dec 11 19:03:08 2019

Wall Time:       31.68 seconds

                                                       Time (seconds)
Module                                       User      System        Wall        Calls

--------------------------------------------------------------------------------------

**************************************************************************************

Host: adabbott

Timers On : Wed Dec 11 19:09:20 2019
Timers Off: Wed Dec 11 19:10:19 2019

Wall Time:       58.67 seconds

                                                       Time (seconds)
Module                                       User      System        Wall        Calls

--------------------------------------------------------------------------------------

**************************************************************************************

Host: adabbott

Timers On : Wed Dec 11 19:12:53 2019
Timers Off: Wed Dec 11 19:13:45 2019

Wall Time:       52.87 seconds

                                                       Time (seconds)
Module                                       User      System        Wall        Calls

--------------------------------------------------------------------------------------

**************************************************************************************

Host: adabbott

Timers On : Wed Dec 11 20:52:10 2019
Timers Off: Wed Dec 11 20:54:48 2019

Wall Time:      157.43 seconds

                                                       Time (seconds)
Module                                       User      System        Wall        Calls

--------------------------------------------------------------------------------------

**************************************************************************************

Host: adabbott

Timers On : Thu Dec 12 11:22:19 2019
Timers Off: Thu Dec 12 11:25:00 2019

Wall Time:      160.78 seconds

                                                       Time (seconds)
Module                                       User      System        Wall        Calls

--------------------------------------------------------------------------------------

**************************************************************************************

Host: adabbott

Timers On : Thu Dec 12 19:01:27 2019
Timers Off: Thu Dec 12 19:01:57 2019

Wall Time:       30.63 seconds

                                                       Time (seconds)
Module                                       User      System        Wall        Calls

--------------------------------------------------------------------------------------

**************************************************************************************

Host: adabbott

Timers On : Thu Dec 12 19:04:00 2019
Timers Off: Fri Dec 13 02:22:35 2019

Wall Time:    26314.98 seconds

                                                       Time (seconds)
Module                                       User      System        Wall        Calls

--------------------------------------------------------------------------------------

**************************************************************************************

Host: adabbott

Timers On : Fri Dec 13 15:42:03 2019
Timers Off: Fri Dec 13 15:42:33 2019

Wall Time:       30.00 seconds

                                                       Time (seconds)
Module                                       User      System        Wall        Calls

--------------------------------------------------------------------------------------

**************************************************************************************

Host: adabbott

Timers On : Fri Dec 13 15:42:49 2019
Timers Off: Fri Dec 13 15:43:18 2019

Wall Time:       29.51 seconds

                                                       Time (seconds)
Module                                       User      System        Wall        Calls

--------------------------------------------------------------------------------------

**************************************************************************************

Host: adabbott

Timers On : Fri Dec 13 15:44:23 2019
Timers Off: Fri Dec 13 15:44:54 2019

Wall Time:       30.89 seconds

                                                       Time (seconds)
Module                                       User      System        Wall        Calls

--------------------------------------------------------------------------------------

**************************************************************************************

Host: adabbott

Timers On : Fri Dec 13 15:46:00 2019
Timers Off: Fri Dec 13 15:46:32 2019

Wall Time:       31.32 seconds

                                                       Time (seconds)
Module                                       User      System        Wall        Calls

--------------------------------------------------------------------------------------

**************************************************************************************

Host: adabbott

Timers On : Fri Dec 13 15:49:30 2019
Timers Off: Fri Dec 13 15:50:04 2019

Wall Time:       33.74 seconds

                                                       Time (seconds)
Module                                       User      System        Wall        Calls

--------------------------------------------------------------------------------------

**************************************************************************************

Host: adabbott

Timers On : Fri Dec 13 15:50:45 2019
Timers Off: Fri Dec 13 15:51:24 2019

Wall Time:       38.95 seconds

                                                       Time (seconds)
Module                                       User      System        Wall        Calls

--------------------------------------------------------------------------------------

**************************************************************************************

Host: adabbott

Timers On : Fri Dec 13 18:36:49 2019
Timers Off: Sat Dec 14 03:50:16 2019

Wall Time:    33206.51 seconds

                                                       Time (seconds)
Module                                       User      System        Wall        Calls

--------------------------------------------------------------------------------------

**************************************************************************************

Host: adabbott

Timers On : Mon Dec 16 12:45:35 2019
Timers Off: Mon Dec 16 12:45:37 2019

Wall Time:        1.73 seconds

                                                       Time (seconds)
Module                                       User      System        Wall        Calls

--------------------------------------------------------------------------------------

**************************************************************************************

Host: adabbott

Timers On : Mon Dec 16 12:45:58 2019
Timers Off: Mon Dec 16 12:46:47 2019

Wall Time:       49.08 seconds

                                                       Time (seconds)
Module                                       User      System        Wall        Calls

--------------------------------------------------------------------------------------

**************************************************************************************

Host: adabbott

Timers On : Mon Dec 16 12:47:37 2019
Timers Off: Mon Dec 16 12:49:04 2019

Wall Time:       86.57 seconds

                                                       Time (seconds)
Module                                       User      System        Wall        Calls

--------------------------------------------------------------------------------------

**************************************************************************************

Host: adabbott

Timers On : Mon Dec 16 13:05:59 2019
Timers Off: Mon Dec 16 13:06:01 2019

Wall Time:        2.24 seconds

                                                       Time (seconds)
Module                                       User      System        Wall        Calls

--------------------------------------------------------------------------------------

**************************************************************************************

Host: adabbott

Timers On : Mon Dec 16 13:06:28 2019
Timers Off: Mon Dec 16 13:08:22 2019

Wall Time:      114.05 seconds

                                                       Time (seconds)
Module                                       User      System        Wall        Calls

--------------------------------------------------------------------------------------

**************************************************************************************

Host: adabbott

Timers On : Tue Dec 17 12:10:36 2019
Timers Off: Tue Dec 17 12:10:38 2019

Wall Time:        2.08 seconds

                                                       Time (seconds)
Module                                       User      System        Wall        Calls

--------------------------------------------------------------------------------------

**************************************************************************************
