
Host: adabbott

Timers On : Thu Jun 18 13:06:10 2020
Timers Off: Thu Jun 18 13:06:11 2020

Wall Time:        0.62 seconds

                                                       Time (seconds)
Module                                       User      System        Wall        Calls

--------------------------------------------------------------------------------------

**************************************************************************************

Host: adabbott

Timers On : Thu Jun 18 13:07:12 2020
Timers Off: Thu Jun 18 13:08:12 2020

Wall Time:       60.13 seconds

                                                       Time (seconds)
Module                                       User      System        Wall        Calls

--------------------------------------------------------------------------------------

**************************************************************************************

Host: adabbott

Timers On : Thu Jun 18 13:10:05 2020
Timers Off: Thu Jun 18 13:10:05 2020

Wall Time:        0.62 seconds

                                                       Time (seconds)
Module                                       User      System        Wall        Calls

--------------------------------------------------------------------------------------

**************************************************************************************

Host: adabbott

Timers On : Thu Jun 18 13:10:53 2020
Timers Off: Thu Jun 18 13:10:53 2020

Wall Time:        0.70 seconds

                                                       Time (seconds)
Module                                       User      System        Wall        Calls

--------------------------------------------------------------------------------------

**************************************************************************************

Host: adabbott

Timers On : Thu Jun 18 13:11:11 2020
Timers Off: Thu Jun 18 13:11:12 2020

Wall Time:        0.62 seconds

                                                       Time (seconds)
Module                                       User      System        Wall        Calls

--------------------------------------------------------------------------------------

**************************************************************************************

Host: adabbott

Timers On : Thu Jun 18 13:13:25 2020
Timers Off: Thu Jun 18 13:13:26 2020

Wall Time:        0.61 seconds

                                                       Time (seconds)
Module                                       User      System        Wall        Calls

--------------------------------------------------------------------------------------

**************************************************************************************

Host: adabbott

Timers On : Thu Jun 18 13:13:32 2020
Timers Off: Thu Jun 18 13:14:36 2020

Wall Time:       64.02 seconds

                                                       Time (seconds)
Module                                       User      System        Wall        Calls

--------------------------------------------------------------------------------------

**************************************************************************************

Host: adabbott

Timers On : Thu Jun 18 13:16:09 2020
Timers Off: Thu Jun 18 13:17:10 2020

Wall Time:       60.99 seconds

                                                       Time (seconds)
Module                                       User      System        Wall        Calls

--------------------------------------------------------------------------------------

**************************************************************************************
