
Host: adabbott

Timers On : Tue Dec 17 16:44:35 2019
Timers Off: Tue Dec 17 16:44:36 2019

Wall Time:        0.59 seconds

                                                       Time (seconds)
Module                                       User      System        Wall        Calls

--------------------------------------------------------------------------------------

**************************************************************************************

Host: adabbott

Timers On : Tue Dec 17 16:45:40 2019
Timers Off: Tue Dec 17 16:45:40 2019

Wall Time:        0.60 seconds

                                                       Time (seconds)
Module                                       User      System        Wall        Calls

--------------------------------------------------------------------------------------

**************************************************************************************

Host: adabbott

Timers On : Tue Dec 17 16:45:53 2019
Timers Off: Tue Dec 17 16:46:10 2019

Wall Time:       17.27 seconds

                                                       Time (seconds)
Module                                       User      System        Wall        Calls

--------------------------------------------------------------------------------------

**************************************************************************************

Host: adabbott

Timers On : Tue Dec 17 16:54:34 2019
Timers Off: Tue Dec 17 16:54:52 2019

Wall Time:       17.87 seconds

                                                       Time (seconds)
Module                                       User      System        Wall        Calls

--------------------------------------------------------------------------------------

**************************************************************************************

Host: adabbott

Timers On : Wed Dec 18 14:57:51 2019
Timers Off: Wed Dec 18 14:58:11 2019

Wall Time:       20.66 seconds

                                                       Time (seconds)
Module                                       User      System        Wall        Calls

--------------------------------------------------------------------------------------

**************************************************************************************

Host: adabbott

Timers On : Wed Dec 18 14:58:22 2019
Timers Off: Wed Dec 18 14:58:42 2019

Wall Time:       20.78 seconds

                                                       Time (seconds)
Module                                       User      System        Wall        Calls

--------------------------------------------------------------------------------------

**************************************************************************************

Host: adabbott

Timers On : Wed Dec 18 14:59:37 2019
Timers Off: Wed Dec 18 14:59:59 2019

Wall Time:       21.43 seconds

                                                       Time (seconds)
Module                                       User      System        Wall        Calls

--------------------------------------------------------------------------------------

**************************************************************************************

Host: adabbott

Timers On : Wed Dec 18 15:01:24 2019
Timers Off: Wed Dec 18 15:01:28 2019

Wall Time:        4.01 seconds

                                                       Time (seconds)
Module                                       User      System        Wall        Calls

--------------------------------------------------------------------------------------

**************************************************************************************

Host: adabbott

Timers On : Wed Dec 18 15:01:34 2019
Timers Off: Wed Dec 18 15:02:02 2019

Wall Time:       27.76 seconds

                                                       Time (seconds)
Module                                       User      System        Wall        Calls

--------------------------------------------------------------------------------------

**************************************************************************************

Host: adabbott

Timers On : Wed Dec 18 15:04:17 2019
Timers Off: Wed Dec 18 15:10:45 2019

Wall Time:      387.76 seconds

                                                       Time (seconds)
Module                                       User      System        Wall        Calls

--------------------------------------------------------------------------------------

**************************************************************************************

Host: adabbott

Timers On : Wed Dec 18 15:22:59 2019
Timers Off: Wed Dec 18 15:24:46 2019

Wall Time:      107.00 seconds

                                                       Time (seconds)
Module                                       User      System        Wall        Calls

--------------------------------------------------------------------------------------

**************************************************************************************

Host: adabbott

Timers On : Wed Dec 18 15:44:56 2019
Timers Off: Wed Dec 18 16:01:35 2019

Wall Time:      999.21 seconds

                                                       Time (seconds)
Module                                       User      System        Wall        Calls

--------------------------------------------------------------------------------------

**************************************************************************************

Host: adabbott

Timers On : Wed Dec 18 16:03:27 2019
Timers Off: Wed Dec 18 16:16:29 2019

Wall Time:      781.69 seconds

                                                       Time (seconds)
Module                                       User      System        Wall        Calls

--------------------------------------------------------------------------------------

**************************************************************************************

Host: adabbott

Timers On : Wed Dec 18 16:25:12 2019
Timers Off: Wed Dec 18 16:25:45 2019

Wall Time:       33.46 seconds

                                                       Time (seconds)
Module                                       User      System        Wall        Calls

--------------------------------------------------------------------------------------

**************************************************************************************

Host: adabbott

Timers On : Wed Dec 18 16:25:54 2019
Timers Off: Wed Dec 18 16:26:29 2019

Wall Time:       34.54 seconds

                                                       Time (seconds)
Module                                       User      System        Wall        Calls

--------------------------------------------------------------------------------------

**************************************************************************************

Host: adabbott

Timers On : Sat Dec 28 13:23:34 2019
Timers Off: Sat Dec 28 13:24:07 2019

Wall Time:       32.78 seconds

                                                       Time (seconds)
Module                                       User      System        Wall        Calls

--------------------------------------------------------------------------------------

**************************************************************************************

Host: adabbott

Timers On : Sat Dec 28 13:25:56 2019
Timers Off: Sat Dec 28 13:26:16 2019

Wall Time:       20.16 seconds

                                                       Time (seconds)
Module                                       User      System        Wall        Calls

--------------------------------------------------------------------------------------

**************************************************************************************

Host: adabbott

Timers On : Sat Dec 28 13:27:18 2019
Timers Off: Sat Dec 28 13:29:04 2019

Wall Time:      105.60 seconds

                                                       Time (seconds)
Module                                       User      System        Wall        Calls

--------------------------------------------------------------------------------------

**************************************************************************************

Host: adabbott

Timers On : Sat Jan  4 13:21:10 2020
Timers Off: Sat Jan  4 13:23:00 2020

Wall Time:      109.46 seconds

                                                       Time (seconds)
Module                                       User      System        Wall        Calls

--------------------------------------------------------------------------------------

**************************************************************************************

Host: adabbott

Timers On : Sat Jan  4 13:29:23 2020
Timers Off: Sat Jan  4 13:46:58 2020

Wall Time:     1054.76 seconds

                                                       Time (seconds)
Module                                       User      System        Wall        Calls

--------------------------------------------------------------------------------------

**************************************************************************************

Host: adabbott

Timers On : Wed Jan  8 13:19:17 2020
Timers Off: Wed Jan  8 13:23:50 2020

Wall Time:      273.35 seconds

                                                       Time (seconds)
Module                                       User      System        Wall        Calls

--------------------------------------------------------------------------------------

**************************************************************************************

Host: adabbott

Timers On : Wed Jan  8 13:24:34 2020
Timers Off: Wed Jan  8 13:42:16 2020

Wall Time:     1062.33 seconds

                                                       Time (seconds)
Module                                       User      System        Wall        Calls

--------------------------------------------------------------------------------------

**************************************************************************************

Host: adabbott

Timers On : Fri Jan 31 15:09:34 2020
Timers Off: Fri Jan 31 15:09:35 2020

Wall Time:        0.70 seconds

                                                       Time (seconds)
Module                                       User      System        Wall        Calls

--------------------------------------------------------------------------------------

**************************************************************************************

Host: adabbott

Timers On : Fri Jan 31 15:12:49 2020
Timers Off: Fri Jan 31 15:12:49 2020

Wall Time:        0.35 seconds

                                                       Time (seconds)
Module                                       User      System        Wall        Calls

--------------------------------------------------------------------------------------

**************************************************************************************

Host: adabbott

Timers On : Fri Jan 31 15:24:09 2020
Timers Off: Fri Jan 31 15:24:09 2020

Wall Time:        0.34 seconds

                                                       Time (seconds)
Module                                       User      System        Wall        Calls

--------------------------------------------------------------------------------------

**************************************************************************************

Host: adabbott

Timers On : Fri Jan 31 15:24:26 2020
Timers Off: Fri Jan 31 15:24:27 2020

Wall Time:        0.35 seconds

                                                       Time (seconds)
Module                                       User      System        Wall        Calls

--------------------------------------------------------------------------------------

**************************************************************************************

Host: adabbott

Timers On : Fri Jan 31 15:28:14 2020
Timers Off: Fri Jan 31 15:28:15 2020

Wall Time:        1.63 seconds

                                                       Time (seconds)
Module                                       User      System        Wall        Calls

--------------------------------------------------------------------------------------

**************************************************************************************

Host: adabbott

Timers On : Fri Jan 31 15:28:33 2020
Timers Off: Fri Jan 31 15:28:34 2020

Wall Time:        1.57 seconds

                                                       Time (seconds)
Module                                       User      System        Wall        Calls

--------------------------------------------------------------------------------------

**************************************************************************************

Host: adabbott

Timers On : Mon Feb  3 12:26:50 2020
Timers Off: Mon Feb  3 12:26:51 2020

Wall Time:        1.76 seconds

                                                       Time (seconds)
Module                                       User      System        Wall        Calls

--------------------------------------------------------------------------------------

**************************************************************************************

Host: adabbott

Timers On : Mon Feb  3 12:30:34 2020
Timers Off: Mon Feb  3 12:30:36 2020

Wall Time:        1.79 seconds

                                                       Time (seconds)
Module                                       User      System        Wall        Calls

--------------------------------------------------------------------------------------

**************************************************************************************

Host: adabbott

Timers On : Mon Feb  3 12:34:00 2020
Timers Off: Mon Feb  3 12:34:01 2020

Wall Time:        1.77 seconds

                                                       Time (seconds)
Module                                       User      System        Wall        Calls

--------------------------------------------------------------------------------------

**************************************************************************************

Host: adabbott

Timers On : Mon Feb  3 12:34:19 2020
Timers Off: Mon Feb  3 12:34:21 2020

Wall Time:        1.76 seconds

                                                       Time (seconds)
Module                                       User      System        Wall        Calls

--------------------------------------------------------------------------------------

**************************************************************************************

Host: adabbott

Timers On : Mon Feb  3 12:35:11 2020
Timers Off: Mon Feb  3 12:35:12 2020

Wall Time:        1.72 seconds

                                                       Time (seconds)
Module                                       User      System        Wall        Calls

--------------------------------------------------------------------------------------

**************************************************************************************

Host: adabbott

Timers On : Mon Feb  3 12:35:24 2020
Timers Off: Mon Feb  3 12:35:26 2020

Wall Time:        1.74 seconds

                                                       Time (seconds)
Module                                       User      System        Wall        Calls

--------------------------------------------------------------------------------------

**************************************************************************************

Host: adabbott

Timers On : Mon Feb  3 12:37:54 2020
Timers Off: Mon Feb  3 12:37:56 2020

Wall Time:        1.74 seconds

                                                       Time (seconds)
Module                                       User      System        Wall        Calls

--------------------------------------------------------------------------------------

**************************************************************************************

Host: adabbott

Timers On : Mon Feb  3 12:39:29 2020
Timers Off: Mon Feb  3 12:39:31 2020

Wall Time:        1.74 seconds

                                                       Time (seconds)
Module                                       User      System        Wall        Calls

--------------------------------------------------------------------------------------

**************************************************************************************

Host: adabbott

Timers On : Mon Feb  3 12:39:46 2020
Timers Off: Mon Feb  3 12:39:48 2020

Wall Time:        1.76 seconds

                                                       Time (seconds)
Module                                       User      System        Wall        Calls

--------------------------------------------------------------------------------------

**************************************************************************************

Host: adabbott

Timers On : Mon Feb  3 13:02:44 2020
Timers Off: Mon Feb  3 13:02:46 2020

Wall Time:        1.84 seconds

                                                       Time (seconds)
Module                                       User      System        Wall        Calls

--------------------------------------------------------------------------------------

**************************************************************************************

Host: adabbott

Timers On : Mon Feb  3 13:03:18 2020
Timers Off: Mon Feb  3 13:03:20 2020

Wall Time:        1.85 seconds

                                                       Time (seconds)
Module                                       User      System        Wall        Calls

--------------------------------------------------------------------------------------

**************************************************************************************
