
Host: adabbott

Timers On : Wed Jun 17 17:47:37 2020
Timers Off: Wed Jun 17 17:47:38 2020

Wall Time:        0.91 seconds

                                                       Time (seconds)
Module                                       User      System        Wall        Calls

--------------------------------------------------------------------------------------

**************************************************************************************

Host: adabbott

Timers On : Wed Jun 17 17:47:53 2020
Timers Off: Wed Jun 17 17:47:53 2020

Wall Time:        0.63 seconds

                                                       Time (seconds)
Module                                       User      System        Wall        Calls

--------------------------------------------------------------------------------------

**************************************************************************************

Host: adabbott

Timers On : Wed Jun 17 17:48:54 2020
Timers Off: Wed Jun 17 17:49:00 2020

Wall Time:        5.73 seconds

                                                       Time (seconds)
Module                                       User      System        Wall        Calls

--------------------------------------------------------------------------------------

**************************************************************************************

Host: adabbott

Timers On : Wed Jun 17 17:50:30 2020
Timers Off: Wed Jun 17 17:50:36 2020

Wall Time:        5.79 seconds

                                                       Time (seconds)
Module                                       User      System        Wall        Calls

--------------------------------------------------------------------------------------

**************************************************************************************

Host: adabbott

Timers On : Wed Jun 17 17:55:09 2020
Timers Off: Wed Jun 17 17:55:10 2020

Wall Time:        0.84 seconds

                                                       Time (seconds)
Module                                       User      System        Wall        Calls

--------------------------------------------------------------------------------------

**************************************************************************************

Host: adabbott

Timers On : Wed Jun 17 17:55:40 2020
Timers Off: Wed Jun 17 17:55:41 2020

Wall Time:        0.84 seconds

                                                       Time (seconds)
Module                                       User      System        Wall        Calls

--------------------------------------------------------------------------------------

**************************************************************************************

Host: adabbott

Timers On : Wed Jun 17 17:55:49 2020
Timers Off: Wed Jun 17 17:55:55 2020

Wall Time:        5.89 seconds

                                                       Time (seconds)
Module                                       User      System        Wall        Calls

--------------------------------------------------------------------------------------

**************************************************************************************

Host: adabbott

Timers On : Wed Jun 17 17:56:06 2020
Timers Off: Wed Jun 17 18:02:35 2020

Wall Time:      389.69 seconds

                                                       Time (seconds)
Module                                       User      System        Wall        Calls

--------------------------------------------------------------------------------------

**************************************************************************************

Host: adabbott

Timers On : Wed Jun 17 18:04:17 2020
Timers Off: Wed Jun 17 22:55:02 2020

Wall Time:    17444.90 seconds

                                                       Time (seconds)
Module                                       User      System        Wall        Calls

--------------------------------------------------------------------------------------

**************************************************************************************
