
Host: adabbott

Timers On : Wed Nov 11 11:37:09 2020
Timers Off: Wed Nov 11 11:37:10 2020

Wall Time:        0.78 seconds

                                                       Time (seconds)
Module                                       User      System        Wall        Calls

--------------------------------------------------------------------------------------

**************************************************************************************
