
Host: adabbott

Timers On : Wed Jun 17 14:05:44 2020
Timers Off: Wed Jun 17 14:05:45 2020

Wall Time:        0.60 seconds

                                                       Time (seconds)
Module                                       User      System        Wall        Calls

--------------------------------------------------------------------------------------

**************************************************************************************

Host: adabbott

Timers On : Wed Jun 17 14:05:55 2020
Timers Off: Wed Jun 17 14:05:55 2020

Wall Time:        0.71 seconds

                                                       Time (seconds)
Module                                       User      System        Wall        Calls

--------------------------------------------------------------------------------------

**************************************************************************************

Host: adabbott

Timers On : Wed Jun 17 14:06:05 2020
Timers Off: Wed Jun 17 14:06:06 2020

Wall Time:        0.69 seconds

                                                       Time (seconds)
Module                                       User      System        Wall        Calls

--------------------------------------------------------------------------------------

**************************************************************************************

Host: adabbott

Timers On : Wed Jun 17 14:09:50 2020
Timers Off: Wed Jun 17 14:09:51 2020

Wall Time:        0.71 seconds

                                                       Time (seconds)
Module                                       User      System        Wall        Calls

--------------------------------------------------------------------------------------

**************************************************************************************

Host: adabbott

Timers On : Wed Jun 17 14:11:50 2020
Timers Off: Wed Jun 17 14:11:51 2020

Wall Time:        0.72 seconds

                                                       Time (seconds)
Module                                       User      System        Wall        Calls

--------------------------------------------------------------------------------------

**************************************************************************************

Host: adabbott

Timers On : Wed Jun 17 14:12:09 2020
Timers Off: Wed Jun 17 14:12:09 2020

Wall Time:        0.70 seconds

                                                       Time (seconds)
Module                                       User      System        Wall        Calls

--------------------------------------------------------------------------------------

**************************************************************************************

Host: adabbott

Timers On : Wed Jun 17 14:12:31 2020
Timers Off: Wed Jun 17 14:12:32 2020

Wall Time:        0.70 seconds

                                                       Time (seconds)
Module                                       User      System        Wall        Calls

--------------------------------------------------------------------------------------

**************************************************************************************

Host: adabbott

Timers On : Wed Jun 17 14:24:13 2020
Timers Off: Wed Jun 17 14:24:14 2020

Wall Time:        0.77 seconds

                                                       Time (seconds)
Module                                       User      System        Wall        Calls

--------------------------------------------------------------------------------------

**************************************************************************************

Host: adabbott

Timers On : Wed Jun 17 14:25:02 2020
Timers Off: Wed Jun 17 14:25:42 2020

Wall Time:       39.23 seconds

                                                       Time (seconds)
Module                                       User      System        Wall        Calls

--------------------------------------------------------------------------------------

**************************************************************************************

Host: adabbott

Timers On : Wed Jun 17 14:26:28 2020
Timers Off: Wed Jun 17 14:27:09 2020

Wall Time:       40.67 seconds

                                                       Time (seconds)
Module                                       User      System        Wall        Calls

--------------------------------------------------------------------------------------

**************************************************************************************

Host: adabbott

Timers On : Wed Jun 17 14:27:33 2020
Timers Off: Wed Jun 17 14:28:13 2020

Wall Time:       39.38 seconds

                                                       Time (seconds)
Module                                       User      System        Wall        Calls

--------------------------------------------------------------------------------------

**************************************************************************************

Host: adabbott

Timers On : Wed Jun 17 14:29:01 2020
Timers Off: Wed Jun 17 14:29:41 2020

Wall Time:       40.10 seconds

                                                       Time (seconds)
Module                                       User      System        Wall        Calls

--------------------------------------------------------------------------------------

**************************************************************************************

Host: adabbott

Timers On : Wed Jun 17 14:32:11 2020
Timers Off: Wed Jun 17 14:32:51 2020

Wall Time:       40.01 seconds

                                                       Time (seconds)
Module                                       User      System        Wall        Calls

--------------------------------------------------------------------------------------

**************************************************************************************

Host: adabbott

Timers On : Wed Jun 17 14:36:35 2020
Timers Off: Wed Jun 17 14:36:36 2020

Wall Time:        0.73 seconds

                                                       Time (seconds)
Module                                       User      System        Wall        Calls

--------------------------------------------------------------------------------------

**************************************************************************************

Host: adabbott

Timers On : Wed Jun 17 14:36:50 2020
Timers Off: Wed Jun 17 14:36:53 2020

Wall Time:        2.50 seconds

                                                       Time (seconds)
Module                                       User      System        Wall        Calls

--------------------------------------------------------------------------------------

**************************************************************************************

Host: adabbott

Timers On : Wed Jun 17 14:37:23 2020
Timers Off: Wed Jun 17 14:38:20 2020

Wall Time:       56.87 seconds

                                                       Time (seconds)
Module                                       User      System        Wall        Calls

--------------------------------------------------------------------------------------

**************************************************************************************

Host: adabbott

Timers On : Wed Jun 17 14:39:01 2020
Timers Off: Wed Jun 17 14:39:58 2020

Wall Time:       56.43 seconds

                                                       Time (seconds)
Module                                       User      System        Wall        Calls

--------------------------------------------------------------------------------------

**************************************************************************************

Host: adabbott

Timers On : Wed Jun 17 14:40:28 2020
Timers Off: Wed Jun 17 14:41:26 2020

Wall Time:       57.57 seconds

                                                       Time (seconds)
Module                                       User      System        Wall        Calls

--------------------------------------------------------------------------------------

**************************************************************************************

Host: adabbott

Timers On : Wed Jun 17 14:42:54 2020
Timers Off: Wed Jun 17 14:43:50 2020

Wall Time:       56.15 seconds

                                                       Time (seconds)
Module                                       User      System        Wall        Calls

--------------------------------------------------------------------------------------

**************************************************************************************

Host: adabbott

Timers On : Wed Jun 17 14:53:22 2020
Timers Off: Wed Jun 17 14:54:25 2020

Wall Time:       63.46 seconds

                                                       Time (seconds)
Module                                       User      System        Wall        Calls

--------------------------------------------------------------------------------------

**************************************************************************************

Host: adabbott

Timers On : Wed Jun 17 15:41:45 2020
Timers Off: Wed Jun 17 15:42:43 2020

Wall Time:       57.18 seconds

                                                       Time (seconds)
Module                                       User      System        Wall        Calls

--------------------------------------------------------------------------------------

**************************************************************************************

Host: adabbott

Timers On : Wed Jun 17 15:43:02 2020
Timers Off: Wed Jun 17 15:44:05 2020

Wall Time:       63.15 seconds

                                                       Time (seconds)
Module                                       User      System        Wall        Calls

--------------------------------------------------------------------------------------

**************************************************************************************

Host: adabbott

Timers On : Wed Jun 17 15:45:14 2020
Timers Off: Wed Jun 17 15:48:39 2020

Wall Time:      205.48 seconds

                                                       Time (seconds)
Module                                       User      System        Wall        Calls

--------------------------------------------------------------------------------------

**************************************************************************************

Host: adabbott

Timers On : Wed Jun 17 16:09:27 2020
Timers Off: Wed Jun 17 16:12:59 2020

Wall Time:      212.15 seconds

                                                       Time (seconds)
Module                                       User      System        Wall        Calls

--------------------------------------------------------------------------------------

**************************************************************************************

Host: adabbott

Timers On : Wed Jun 17 16:18:17 2020
Timers Off: Wed Jun 17 16:19:13 2020

Wall Time:       55.94 seconds

                                                       Time (seconds)
Module                                       User      System        Wall        Calls

--------------------------------------------------------------------------------------

**************************************************************************************

Host: adabbott

Timers On : Wed Jun 17 16:28:04 2020
Timers Off: Wed Jun 17 16:29:01 2020

Wall Time:       56.86 seconds

                                                       Time (seconds)
Module                                       User      System        Wall        Calls

--------------------------------------------------------------------------------------

**************************************************************************************

Host: adabbott

Timers On : Wed Jun 17 16:29:33 2020
Timers Off: Wed Jun 17 16:30:29 2020

Wall Time:       55.99 seconds

                                                       Time (seconds)
Module                                       User      System        Wall        Calls

--------------------------------------------------------------------------------------

**************************************************************************************

Host: adabbott

Timers On : Wed Jun 17 16:32:36 2020
Timers Off: Wed Jun 17 16:33:34 2020

Wall Time:       57.98 seconds

                                                       Time (seconds)
Module                                       User      System        Wall        Calls

--------------------------------------------------------------------------------------

**************************************************************************************

Host: adabbott

Timers On : Wed Jun 17 16:34:54 2020
Timers Off: Wed Jun 17 16:35:56 2020

Wall Time:       61.75 seconds

                                                       Time (seconds)
Module                                       User      System        Wall        Calls

--------------------------------------------------------------------------------------

**************************************************************************************

Host: adabbott

Timers On : Wed Jun 17 16:36:33 2020
Timers Off: Wed Jun 17 16:37:36 2020

Wall Time:       62.50 seconds

                                                       Time (seconds)
Module                                       User      System        Wall        Calls

--------------------------------------------------------------------------------------

**************************************************************************************

Host: adabbott

Timers On : Wed Jun 17 16:38:17 2020
Timers Off: Wed Jun 17 16:42:03 2020

Wall Time:      225.92 seconds

                                                       Time (seconds)
Module                                       User      System        Wall        Calls

--------------------------------------------------------------------------------------

**************************************************************************************

Host: adabbott

Timers On : Wed Jun 17 16:45:47 2020
Timers Off: Wed Jun 17 16:45:48 2020

Wall Time:        0.70 seconds

                                                       Time (seconds)
Module                                       User      System        Wall        Calls

--------------------------------------------------------------------------------------

**************************************************************************************

Host: adabbott

Timers On : Wed Jun 17 16:45:57 2020
Timers Off: Wed Jun 17 16:45:58 2020

Wall Time:        0.70 seconds

                                                       Time (seconds)
Module                                       User      System        Wall        Calls

--------------------------------------------------------------------------------------

**************************************************************************************

Host: adabbott

Timers On : Wed Jun 17 16:46:03 2020
Timers Off: Wed Jun 17 16:46:03 2020

Wall Time:        0.70 seconds

                                                       Time (seconds)
Module                                       User      System        Wall        Calls

--------------------------------------------------------------------------------------

**************************************************************************************

Host: adabbott

Timers On : Wed Jun 17 16:48:12 2020
Timers Off: Wed Jun 17 16:48:12 2020

Wall Time:        0.78 seconds

                                                       Time (seconds)
Module                                       User      System        Wall        Calls

--------------------------------------------------------------------------------------

**************************************************************************************

Host: adabbott

Timers On : Wed Jun 17 16:48:34 2020
Timers Off: Wed Jun 17 16:48:35 2020

Wall Time:        0.75 seconds

                                                       Time (seconds)
Module                                       User      System        Wall        Calls

--------------------------------------------------------------------------------------

**************************************************************************************

Host: adabbott

Timers On : Wed Jun 17 16:48:59 2020
Timers Off: Wed Jun 17 16:49:00 2020

Wall Time:        0.78 seconds

                                                       Time (seconds)
Module                                       User      System        Wall        Calls

--------------------------------------------------------------------------------------

**************************************************************************************

Host: adabbott

Timers On : Wed Jun 17 16:49:13 2020
Timers Off: Wed Jun 17 16:49:14 2020

Wall Time:        0.75 seconds

                                                       Time (seconds)
Module                                       User      System        Wall        Calls

--------------------------------------------------------------------------------------

**************************************************************************************

Host: adabbott

Timers On : Wed Jun 17 16:51:59 2020
Timers Off: Wed Jun 17 16:51:59 2020

Wall Time:        0.78 seconds

                                                       Time (seconds)
Module                                       User      System        Wall        Calls

--------------------------------------------------------------------------------------

**************************************************************************************

Host: adabbott

Timers On : Wed Jun 17 16:52:14 2020
Timers Off: Wed Jun 17 16:52:15 2020

Wall Time:        0.77 seconds

                                                       Time (seconds)
Module                                       User      System        Wall        Calls

--------------------------------------------------------------------------------------

**************************************************************************************

Host: adabbott

Timers On : Wed Jun 17 16:55:35 2020
Timers Off: Wed Jun 17 16:55:36 2020

Wall Time:        0.70 seconds

                                                       Time (seconds)
Module                                       User      System        Wall        Calls

--------------------------------------------------------------------------------------

**************************************************************************************

Host: adabbott

Timers On : Wed Jun 17 16:55:47 2020
Timers Off: Wed Jun 17 16:55:48 2020

Wall Time:        0.70 seconds

                                                       Time (seconds)
Module                                       User      System        Wall        Calls

--------------------------------------------------------------------------------------

**************************************************************************************

Host: adabbott

Timers On : Wed Jun 17 16:55:55 2020
Timers Off: Wed Jun 17 16:55:56 2020

Wall Time:        0.71 seconds

                                                       Time (seconds)
Module                                       User      System        Wall        Calls

--------------------------------------------------------------------------------------

**************************************************************************************

Host: adabbott

Timers On : Wed Jun 17 16:56:13 2020
Timers Off: Wed Jun 17 16:56:13 2020

Wall Time:        0.78 seconds

                                                       Time (seconds)
Module                                       User      System        Wall        Calls

--------------------------------------------------------------------------------------

**************************************************************************************

Host: adabbott

Timers On : Wed Jun 17 16:56:35 2020
Timers Off: Wed Jun 17 16:56:36 2020

Wall Time:        0.73 seconds

                                                       Time (seconds)
Module                                       User      System        Wall        Calls

--------------------------------------------------------------------------------------

**************************************************************************************

Host: adabbott

Timers On : Wed Jun 17 16:57:12 2020
Timers Off: Wed Jun 17 16:58:12 2020

Wall Time:       59.79 seconds

                                                       Time (seconds)
Module                                       User      System        Wall        Calls

--------------------------------------------------------------------------------------

**************************************************************************************

Host: adabbott

Timers On : Wed Jun 17 16:59:00 2020
Timers Off: Wed Jun 17 17:02:42 2020

Wall Time:      222.43 seconds

                                                       Time (seconds)
Module                                       User      System        Wall        Calls

--------------------------------------------------------------------------------------

**************************************************************************************

Host: adabbott

Timers On : Wed Jun 17 17:08:09 2020
Timers Off: Wed Jun 17 17:09:06 2020

Wall Time:       57.06 seconds

                                                       Time (seconds)
Module                                       User      System        Wall        Calls

--------------------------------------------------------------------------------------

**************************************************************************************

Host: adabbott

Timers On : Wed Jun 17 17:10:13 2020
Timers Off: Wed Jun 17 17:11:14 2020

Wall Time:       61.07 seconds

                                                       Time (seconds)
Module                                       User      System        Wall        Calls

--------------------------------------------------------------------------------------

**************************************************************************************

Host: adabbott

Timers On : Wed Jun 17 17:11:27 2020
Timers Off: Wed Jun 17 17:15:04 2020

Wall Time:      216.76 seconds

                                                       Time (seconds)
Module                                       User      System        Wall        Calls

--------------------------------------------------------------------------------------

**************************************************************************************

Host: adabbott

Timers On : Wed Jun 17 17:21:30 2020
Timers Off: Wed Jun 17 17:25:11 2020

Wall Time:      220.65 seconds

                                                       Time (seconds)
Module                                       User      System        Wall        Calls

--------------------------------------------------------------------------------------

**************************************************************************************

Host: adabbott

Timers On : Wed Jun 17 17:30:09 2020
Timers Off: Wed Jun 17 17:30:10 2020

Wall Time:        0.60 seconds

                                                       Time (seconds)
Module                                       User      System        Wall        Calls

--------------------------------------------------------------------------------------

**************************************************************************************

Host: adabbott

Timers On : Wed Jun 17 17:30:43 2020
Timers Off: Wed Jun 17 17:31:53 2020

Wall Time:       69.49 seconds

                                                       Time (seconds)
Module                                       User      System        Wall        Calls

--------------------------------------------------------------------------------------

**************************************************************************************

Host: adabbott

Timers On : Thu Jun 18 12:56:12 2020
Timers Off: Thu Jun 18 12:57:10 2020

Wall Time:       57.65 seconds

                                                       Time (seconds)
Module                                       User      System        Wall        Calls

--------------------------------------------------------------------------------------

**************************************************************************************

Host: adabbott

Timers On : Thu Jun 18 13:00:27 2020
Timers Off: Thu Jun 18 13:04:12 2020

Wall Time:      224.52 seconds

                                                       Time (seconds)
Module                                       User      System        Wall        Calls

--------------------------------------------------------------------------------------

**************************************************************************************

Host: adabbott

Timers On : Thu Jun 18 13:17:45 2020
Timers Off: Thu Jun 18 13:21:26 2020

Wall Time:      220.97 seconds

                                                       Time (seconds)
Module                                       User      System        Wall        Calls

--------------------------------------------------------------------------------------

**************************************************************************************

Host: adabbott

Timers On : Thu Jun 18 13:26:26 2020
Timers Off: Thu Jun 18 13:26:28 2020

Wall Time:        1.34 seconds

                                                       Time (seconds)
Module                                       User      System        Wall        Calls

--------------------------------------------------------------------------------------

**************************************************************************************

Host: adabbott

Timers On : Thu Jun 18 13:26:36 2020
Timers Off: Thu Jun 18 13:26:37 2020

Wall Time:        1.44 seconds

                                                       Time (seconds)
Module                                       User      System        Wall        Calls

--------------------------------------------------------------------------------------

**************************************************************************************

Host: adabbott

Timers On : Thu Jun 18 13:38:43 2020
Timers Off: Thu Jun 18 13:42:23 2020

Wall Time:      219.53 seconds

                                                       Time (seconds)
Module                                       User      System        Wall        Calls

--------------------------------------------------------------------------------------

**************************************************************************************

Host: adabbott

Timers On : Thu Jun 18 13:44:44 2020
Timers Off: Thu Jun 18 13:48:19 2020

Wall Time:      215.28 seconds

                                                       Time (seconds)
Module                                       User      System        Wall        Calls

--------------------------------------------------------------------------------------

**************************************************************************************

Host: adabbott

Timers On : Thu Jun 18 13:48:48 2020
Timers Off: Thu Jun 18 13:52:28 2020

Wall Time:      219.47 seconds

                                                       Time (seconds)
Module                                       User      System        Wall        Calls

--------------------------------------------------------------------------------------

**************************************************************************************

Host: adabbott

Timers On : Thu Jun 18 14:05:35 2020
Timers Off: Thu Jun 18 14:05:36 2020

Wall Time:        1.26 seconds

                                                       Time (seconds)
Module                                       User      System        Wall        Calls

--------------------------------------------------------------------------------------

**************************************************************************************

Host: adabbott

Timers On : Thu Jun 18 14:21:56 2020
Timers Off: Thu Jun 18 14:25:39 2020

Wall Time:      222.82 seconds

                                                       Time (seconds)
Module                                       User      System        Wall        Calls

--------------------------------------------------------------------------------------

**************************************************************************************

Host: adabbott

Timers On : Thu Jun 18 14:28:59 2020
Timers Off: Thu Jun 18 14:32:40 2020

Wall Time:      221.47 seconds

                                                       Time (seconds)
Module                                       User      System        Wall        Calls

--------------------------------------------------------------------------------------

**************************************************************************************

Host: adabbott

Timers On : Thu Jun 18 14:33:51 2020
Timers Off: Thu Jun 18 14:37:28 2020

Wall Time:      216.77 seconds

                                                       Time (seconds)
Module                                       User      System        Wall        Calls

--------------------------------------------------------------------------------------

**************************************************************************************
