
Host: adabbott

Timers On : Thu Jun 18 14:53:39 2020
Timers Off: Thu Jun 18 14:54:39 2020

Wall Time:       59.63 seconds

                                                       Time (seconds)
Module                                       User      System        Wall        Calls

--------------------------------------------------------------------------------------

**************************************************************************************

Host: adabbott

Timers On : Thu Jun 18 15:18:49 2020
Timers Off: Thu Jun 18 15:19:09 2020

Wall Time:       19.92 seconds

                                                       Time (seconds)
Module                                       User      System        Wall        Calls

--------------------------------------------------------------------------------------

**************************************************************************************

Host: adabbott

Timers On : Thu Jun 18 15:19:32 2020
Timers Off: Thu Jun 18 15:22:30 2020

Wall Time:      178.41 seconds

                                                       Time (seconds)
Module                                       User      System        Wall        Calls

--------------------------------------------------------------------------------------

**************************************************************************************

Host: adabbott

Timers On : Thu Jun 18 15:59:29 2020
Timers Off: Thu Jun 18 16:02:31 2020

Wall Time:      181.92 seconds

                                                       Time (seconds)
Module                                       User      System        Wall        Calls

--------------------------------------------------------------------------------------

**************************************************************************************

Host: adabbott

Timers On : Thu Jun 18 16:21:54 2020
Timers Off: Thu Jun 18 16:21:55 2020

Wall Time:        0.72 seconds

                                                       Time (seconds)
Module                                       User      System        Wall        Calls

--------------------------------------------------------------------------------------

**************************************************************************************

Host: adabbott

Timers On : Thu Jun 18 16:22:33 2020
Timers Off: Thu Jun 18 16:22:33 2020

Wall Time:        0.72 seconds

                                                       Time (seconds)
Module                                       User      System        Wall        Calls

--------------------------------------------------------------------------------------

**************************************************************************************

Host: adabbott

Timers On : Thu Jun 18 16:22:47 2020
Timers Off: Thu Jun 18 16:22:48 2020

Wall Time:        0.78 seconds

                                                       Time (seconds)
Module                                       User      System        Wall        Calls

--------------------------------------------------------------------------------------

**************************************************************************************

Host: adabbott

Timers On : Thu Jun 18 16:24:41 2020
Timers Off: Thu Jun 18 16:25:20 2020

Wall Time:       38.46 seconds

                                                       Time (seconds)
Module                                       User      System        Wall        Calls

--------------------------------------------------------------------------------------

**************************************************************************************

Host: adabbott

Timers On : Thu Jun 18 16:27:52 2020
Timers Off: Thu Jun 18 16:28:26 2020

Wall Time:       33.90 seconds

                                                       Time (seconds)
Module                                       User      System        Wall        Calls

--------------------------------------------------------------------------------------

**************************************************************************************

Host: adabbott

Timers On : Thu Jun 18 16:28:52 2020
Timers Off: Thu Jun 18 16:29:30 2020

Wall Time:       37.86 seconds

                                                       Time (seconds)
Module                                       User      System        Wall        Calls

--------------------------------------------------------------------------------------

**************************************************************************************

Host: adabbott

Timers On : Thu Jun 18 16:29:44 2020
Timers Off: Thu Jun 18 16:32:59 2020

Wall Time:      194.85 seconds

                                                       Time (seconds)
Module                                       User      System        Wall        Calls

--------------------------------------------------------------------------------------

**************************************************************************************

Host: adabbott

Timers On : Thu Jun 18 16:40:00 2020
Timers Off: Thu Jun 18 16:40:03 2020

Wall Time:        2.43 seconds

                                                       Time (seconds)
Module                                       User      System        Wall        Calls

--------------------------------------------------------------------------------------

**************************************************************************************

Host: adabbott

Timers On : Thu Jun 18 16:40:26 2020
Timers Off: Thu Jun 18 16:40:29 2020

Wall Time:        2.45 seconds

                                                       Time (seconds)
Module                                       User      System        Wall        Calls

--------------------------------------------------------------------------------------

**************************************************************************************

Host: adabbott

Timers On : Thu Jun 18 16:41:12 2020
Timers Off: Thu Jun 18 16:41:49 2020

Wall Time:       37.52 seconds

                                                       Time (seconds)
Module                                       User      System        Wall        Calls

--------------------------------------------------------------------------------------

**************************************************************************************

Host: adabbott

Timers On : Thu Jun 18 16:42:31 2020
Timers Off: Thu Jun 18 16:43:12 2020

Wall Time:       40.89 seconds

                                                       Time (seconds)
Module                                       User      System        Wall        Calls

--------------------------------------------------------------------------------------

**************************************************************************************

Host: adabbott

Timers On : Thu Jun 18 16:43:35 2020
Timers Off: Thu Jun 18 16:46:50 2020

Wall Time:      194.73 seconds

                                                       Time (seconds)
Module                                       User      System        Wall        Calls

--------------------------------------------------------------------------------------

**************************************************************************************

Host: adabbott

Timers On : Thu Jun 18 16:47:37 2020
Timers Off: Thu Jun 18 16:47:38 2020

Wall Time:        0.96 seconds

                                                       Time (seconds)
Module                                       User      System        Wall        Calls

--------------------------------------------------------------------------------------

**************************************************************************************

Host: adabbott

Timers On : Thu Jun 18 16:48:13 2020
Timers Off: Thu Jun 18 16:48:38 2020

Wall Time:       24.99 seconds

                                                       Time (seconds)
Module                                       User      System        Wall        Calls

--------------------------------------------------------------------------------------

**************************************************************************************

Host: adabbott

Timers On : Thu Jun 18 16:49:14 2020
Timers Off: Thu Jun 18 16:52:21 2020

Wall Time:      187.43 seconds

                                                       Time (seconds)
Module                                       User      System        Wall        Calls

--------------------------------------------------------------------------------------

**************************************************************************************

Host: adabbott

Timers On : Thu Jun 18 16:53:08 2020
Timers Off: Thu Jun 18 16:53:39 2020

Wall Time:       31.06 seconds

                                                       Time (seconds)
Module                                       User      System        Wall        Calls

--------------------------------------------------------------------------------------

**************************************************************************************

Host: adabbott

Timers On : Thu Jun 18 17:11:17 2020
Timers Off: Thu Jun 18 17:11:20 2020

Wall Time:        2.59 seconds

                                                       Time (seconds)
Module                                       User      System        Wall        Calls

--------------------------------------------------------------------------------------

**************************************************************************************

Host: adabbott

Timers On : Thu Jun 18 17:12:15 2020
Timers Off: Thu Jun 18 17:12:30 2020

Wall Time:       15.68 seconds

                                                       Time (seconds)
Module                                       User      System        Wall        Calls

--------------------------------------------------------------------------------------

**************************************************************************************

Host: adabbott

Timers On : Thu Jun 18 17:13:12 2020
Timers Off: Thu Jun 18 17:16:08 2020

Wall Time:      176.58 seconds

                                                       Time (seconds)
Module                                       User      System        Wall        Calls

--------------------------------------------------------------------------------------

**************************************************************************************

Host: adabbott

Timers On : Thu Jun 18 17:21:38 2020
Timers Off: Thu Jun 18 17:24:31 2020

Wall Time:      173.04 seconds

                                                       Time (seconds)
Module                                       User      System        Wall        Calls

--------------------------------------------------------------------------------------

**************************************************************************************

Host: adabbott

Timers On : Tue Jun 23 12:52:56 2020
Timers Off: Tue Jun 23 12:53:28 2020

Wall Time:       32.08 seconds

                                                       Time (seconds)
Module                                       User      System        Wall        Calls

--------------------------------------------------------------------------------------

**************************************************************************************

Host: adabbott

Timers On : Tue Jun 23 12:53:40 2020
Timers Off: Tue Jun 23 12:57:21 2020

Wall Time:      221.97 seconds

                                                       Time (seconds)
Module                                       User      System        Wall        Calls

--------------------------------------------------------------------------------------

**************************************************************************************
