
Host: adabbott

Timers On : Tue Jun 16 14:02:39 2020
Timers Off: Tue Jun 16 14:02:57 2020

Wall Time:       18.38 seconds

                                                       Time (seconds)
Module                                       User      System        Wall        Calls

--------------------------------------------------------------------------------------

**************************************************************************************

Host: adabbott

Timers On : Tue Jun 16 14:04:55 2020
Timers Off: Tue Jun 16 14:04:56 2020

Wall Time:        0.78 seconds

                                                       Time (seconds)
Module                                       User      System        Wall        Calls

--------------------------------------------------------------------------------------

**************************************************************************************

Host: adabbott

Timers On : Tue Jun 16 14:06:47 2020
Timers Off: Tue Jun 16 14:06:48 2020

Wall Time:        0.79 seconds

                                                       Time (seconds)
Module                                       User      System        Wall        Calls

--------------------------------------------------------------------------------------

**************************************************************************************

Host: adabbott

Timers On : Tue Jun 16 14:20:37 2020
Timers Off: Tue Jun 16 14:20:38 2020

Wall Time:        1.04 seconds

                                                       Time (seconds)
Module                                       User      System        Wall        Calls

--------------------------------------------------------------------------------------

**************************************************************************************

Host: adabbott

Timers On : Tue Jun 16 14:20:56 2020
Timers Off: Tue Jun 16 14:20:59 2020

Wall Time:        2.57 seconds

                                                       Time (seconds)
Module                                       User      System        Wall        Calls

--------------------------------------------------------------------------------------

**************************************************************************************

Host: adabbott

Timers On : Tue Jun 16 14:32:16 2020
Timers Off: Tue Jun 16 14:32:17 2020

Wall Time:        0.99 seconds

                                                       Time (seconds)
Module                                       User      System        Wall        Calls

--------------------------------------------------------------------------------------

**************************************************************************************

Host: adabbott

Timers On : Tue Jun 16 14:32:49 2020
Timers Off: Tue Jun 16 14:32:50 2020

Wall Time:        0.99 seconds

                                                       Time (seconds)
Module                                       User      System        Wall        Calls

--------------------------------------------------------------------------------------

**************************************************************************************

Host: adabbott

Timers On : Tue Jun 16 14:33:20 2020
Timers Off: Tue Jun 16 14:33:23 2020

Wall Time:        2.57 seconds

                                                       Time (seconds)
Module                                       User      System        Wall        Calls

--------------------------------------------------------------------------------------

**************************************************************************************

Host: adabbott

Timers On : Tue Jun 16 14:33:38 2020
Timers Off: Tue Jun 16 14:33:41 2020

Wall Time:        2.59 seconds

                                                       Time (seconds)
Module                                       User      System        Wall        Calls

--------------------------------------------------------------------------------------

**************************************************************************************

Host: adabbott

Timers On : Tue Jun 16 14:34:26 2020
Timers Off: Tue Jun 16 14:34:29 2020

Wall Time:        2.51 seconds

                                                       Time (seconds)
Module                                       User      System        Wall        Calls

--------------------------------------------------------------------------------------

**************************************************************************************

Host: adabbott

Timers On : Tue Jun 16 14:37:42 2020
Timers Off: Tue Jun 16 14:37:43 2020

Wall Time:        1.01 seconds

                                                       Time (seconds)
Module                                       User      System        Wall        Calls

--------------------------------------------------------------------------------------

**************************************************************************************

Host: adabbott

Timers On : Tue Jun 16 14:37:55 2020
Timers Off: Tue Jun 16 14:37:57 2020

Wall Time:        2.51 seconds

                                                       Time (seconds)
Module                                       User      System        Wall        Calls

--------------------------------------------------------------------------------------

**************************************************************************************

Host: adabbott

Timers On : Tue Jun 16 14:38:07 2020
Timers Off: Tue Jun 16 14:38:08 2020

Wall Time:        1.02 seconds

                                                       Time (seconds)
Module                                       User      System        Wall        Calls

--------------------------------------------------------------------------------------

**************************************************************************************

Host: adabbott

Timers On : Tue Jun 16 14:38:16 2020
Timers Off: Tue Jun 16 14:38:19 2020

Wall Time:        2.51 seconds

                                                       Time (seconds)
Module                                       User      System        Wall        Calls

--------------------------------------------------------------------------------------

**************************************************************************************

Host: adabbott

Timers On : Tue Jun 16 14:40:35 2020
Timers Off: Tue Jun 16 14:40:36 2020

Wall Time:        1.14 seconds

                                                       Time (seconds)
Module                                       User      System        Wall        Calls

--------------------------------------------------------------------------------------

**************************************************************************************

Host: adabbott

Timers On : Tue Jun 16 14:42:15 2020
Timers Off: Tue Jun 16 14:42:16 2020

Wall Time:        1.16 seconds

                                                       Time (seconds)
Module                                       User      System        Wall        Calls

--------------------------------------------------------------------------------------

**************************************************************************************

Host: adabbott

Timers On : Tue Jun 16 14:43:21 2020
Timers Off: Tue Jun 16 14:43:22 2020

Wall Time:        1.15 seconds

                                                       Time (seconds)
Module                                       User      System        Wall        Calls

--------------------------------------------------------------------------------------

**************************************************************************************

Host: adabbott

Timers On : Wed Jun 17 13:36:29 2020
Timers Off: Wed Jun 17 13:36:36 2020

Wall Time:        7.86 seconds

                                                       Time (seconds)
Module                                       User      System        Wall        Calls

--------------------------------------------------------------------------------------

**************************************************************************************

Host: adabbott

Timers On : Wed Jun 17 13:37:20 2020
Timers Off: Wed Jun 17 13:37:28 2020

Wall Time:        7.80 seconds

                                                       Time (seconds)
Module                                       User      System        Wall        Calls

--------------------------------------------------------------------------------------

**************************************************************************************

Host: adabbott

Timers On : Wed Jun 17 13:50:01 2020
Timers Off: Wed Jun 17 13:50:09 2020

Wall Time:        7.80 seconds

                                                       Time (seconds)
Module                                       User      System        Wall        Calls

--------------------------------------------------------------------------------------

**************************************************************************************
