
    -----------------------------------------------------------------------
          Psi4: An Open-Source Ab Initio Electronic Structure Package
                               Psi4 1.3.2 release

                         Git: Rev {HEAD} ecbda83 


    R. M. Parrish, L. A. Burns, D. G. A. Smith, A. C. Simmonett,
    A. E. DePrince III, E. G. Hohenstein, U. Bozkaya, A. Yu. Sokolov,
    R. Di Remigio, R. M. Richard, J. F. Gonthier, A. M. James,
    H. R. McAlexander, A. Kumar, M. Saitow, X. Wang, B. P. Pritchard,
    P. Verma, H. F. Schaefer III, K. Patkowski, R. A. King, E. F. Valeev,
    F. A. Evangelista, J. M. Turney, T. D. Crawford, and C. D. Sherrill,
    J. Chem. Theory Comput. 13(7) pp 3185--3197 (2017).
    (doi: 10.1021/acs.jctc.7b00174)


                         Additional Contributions by
    P. Kraus, H. Kruse, M. H. Lechner, M. C. Schieber, R. A. Shaw,
    A. Alenaizan, R. Galvelis, Z. L. Glick, S. Lehtola, and J. P. Misiewicz

    -----------------------------------------------------------------------


    Psi4 started on: Thursday, 07 November 2019 02:29PM

    Process ID: 6767
    Host:       adabbott
    PSIDATADIR: /home/adabbott/anaconda3/envs/psijax/share/psi4
    Memory:     500.0 MiB
    Threads:    1
    
  ==> Input File <==

--------------------------------------------------------------------------
import psi4
import numpy as np
np.set_printoptions(linewidth=599)

basis {
assign s_orb
[ s_orb ]
cartesian
****
H     0
F   1   1.00
      0.50000000000      1.0000000000
****
Li     0
D   1   1.00
      0.50000000000      1.0000000000
****
}

molecule h2o {
symmetry c1
units bohr
0 1
H  0.000000000000 0.000000000000 -0.849220457955
Li 0.000000000000 0.000000000000  0.849220457955
}

set scf_type pk
set mp2_type conv
set puream false
set e_convergence 10
set d_convergence 10
e, wfn = energy('hf', return_wfn=True)


mol = wfn.molecule()
bs = wfn.basisset()
basis = psi4.core.BasisSet.build(mol)
mints = psi4.core.MintsHelper(basis)
print(basis.shell(0).coef(0))
print(basis.shell(0).coef(1))
print(basis.shell(1).coef(0))
print(basis.shell(1).coef(1))

S = mints.ao_overlap()
#T = mints.ao_kinetic()
#V = mints.ao_potential()

print(np.asarray(S))
#print(np.asarray(T))
#print(np.asarray(V))


--------------------------------------------------------------------------

*** tstart() called on adabbott
*** at Thu Nov  7 14:29:37 2019

   => Loading Basis Set <=

    Name: ANONYMOUSE20A9DEE
    Role: ORBITAL
    Keyword: BASIS
    atoms 1 entry H          line     5 inputblock s_orb 
    atoms 2 entry LI         line     9 inputblock s_orb 


         ---------------------------------------------------------
                                   SCF
               by Justin Turney, Rob Parrish, Andy Simmonett
                          and Daniel G. A. Smith
                              RHF Reference
                        1 Threads,    500 MiB Core
         ---------------------------------------------------------

  ==> Geometry <==

    Molecular point group: c1
    Full point group: C_inf_v

    Geometry (in Bohr), charge = 0, multiplicity = 1:

       Center              X                  Y                   Z               Mass       
    ------------   -----------------  -----------------  -----------------  -----------------
         H            0.000000000000     0.000000000000    -1.485109925913     1.007825032230
         LI           0.000000000000     0.000000000000     0.213330989997     7.016003436600

  Running in c1 symmetry.

  Rotational constants: A = ************  B =     23.68100  C =     23.68100 [cm^-1]
  Rotational constants: A = ************  B = 709938.53229  C = 709938.53229 [MHz]
  Nuclear repulsion =    1.766325794378690

  Charge       = 0
  Multiplicity = 1
  Electrons    = 4
  Nalpha       = 2
  Nbeta        = 2

  ==> Algorithm <==

  SCF Algorithm Type is PK.
  DIIS enabled.
  MOM disabled.
  Fractional occupation disabled.
  Guess Type is SAD.
  Energy threshold   = 1.00e-10
  Density threshold  = 1.00e-10
  Integral threshold = 0.00e+00

  ==> Primary Basis <==

  Basis Set: ANONYMOUSE20A9DEE
    Blend: S_ORB
    Number of shells: 2
    Number of basis function: 16
    Number of Cartesian functions: 16
    Spherical Harmonics?: false
    Max angular momentum: 3

  ==> Pre-Iterations <==

   -------------------------------------------------------
    Irrep   Nso     Nmo     Nalpha   Nbeta   Ndocc  Nsocc
   -------------------------------------------------------
     A         16      16       0       0       0       0
   -------------------------------------------------------
    Total      16      16       2       2       2       0
   -------------------------------------------------------

  ==> Integral Setup <==

  Using in-core PK algorithm.
   Calculation information:
      Number of atoms:                   2
      Number of AO shells:               2
      Number of primitives:              2
      Number of atomic orbitals:        16
      Number of basis functions:        16

      Integral cutoff                 1.00e-12
      Number of threads:                 1

  Performing in-core PK
  Using 18632 doubles for integral storage.
  We computed 6 shell quartets total.
  Whereas there are 6 unique shell quartets.

  ==> DiskJK: Disk-Based J/K Matrices <==

    J tasked:                  Yes
    K tasked:                  Yes
    wK tasked:                  No
    Memory [MiB]:              375
    Schwarz Cutoff:          1E-12

    OpenMP threads:              1

  Minimum eigenvalue in the overlap matrix is 4.0770567847E-02.
  Using Symmetric Orthogonalization.

  SCF Guess: Superposition of Atomic Densities via on-the-fly atomic UHF.

  ==> Iterations <==

                        Total Energy        Delta E     RMS |[F,P]|

   @RHF iter SAD:    -0.41709578532698   -4.17096e-01   0.00000e+00 
   @RHF iter   1:    -2.06779405775382   -1.65070e+00   5.60810e-03 DIIS
   @RHF iter   2:    -2.08013047181351   -1.23364e-02   2.03269e-03 DIIS
   @RHF iter   3:    -2.08200249169033   -1.87202e-03   1.08609e-04 DIIS
   @RHF iter   4:    -2.08200930542076   -6.81373e-06   4.76114e-05 DIIS
   @RHF iter   5:    -2.08201222023386   -2.91481e-06   3.36998e-05 DIIS
   @RHF iter   6:    -2.08201532204938   -3.10182e-06   1.48579e-06 DIIS
   @RHF iter   7:    -2.08201532322398   -1.17460e-09   1.19904e-07 DIIS
   @RHF iter   8:    -2.08201532322815   -4.17710e-12   1.22215e-08 DIIS
   @RHF iter   9:    -2.08201532322820   -4.97380e-14   1.15344e-09 DIIS
   @RHF iter  10:    -2.08201532322820   -4.44089e-16   7.54501e-11 DIIS
  Energy and wave function converged.


  ==> Post-Iterations <==

    Orbital Energies [Eh]
    ---------------------

    Doubly Occupied:                                                      

       1A     -0.798207     2A      0.180391  

    Virtual:                                                              

       3A      0.568106     4A      0.568106     5A      1.038392  
       6A      1.158618     7A      1.158618     8A      1.234069  
       9A      1.234069    10A      1.812645    11A      2.081134  
      12A      2.081134    13A      2.085936    14A      2.085936  
      15A      2.385889    16A      2.385889  

    Final Occupation by Irrep:
              A 
    DOCC [     2 ]

  @RHF Final Energy:    -2.08201532322820

   => Energetics <=

    Nuclear Repulsion Energy =              1.7663257943786896
    One-Electron Energy =                  -6.4610498761865145
    Two-Electron Energy =                   2.6127087585796205
    Total Energy =                         -2.0820153232282048

Computation Completed


Properties will be evaluated at   0.000000,   0.000000,   0.000000 [a0]

Properties computed using the SCF density matrix

  Nuclear Dipole Moment: [e a0]
     X:     0.0000      Y:     0.0000      Z:    -0.8451

  Electronic Dipole Moment: [e a0]
     X:     0.0000      Y:    -0.0000      Z:     3.6713

  Dipole Moment: [e a0]
     X:     0.0000      Y:    -0.0000      Z:     2.8262     Total:     2.8262

  Dipole Moment: [D]
     X:     0.0000      Y:    -0.0000      Z:     7.1835     Total:     7.1835


*** tstop() called on adabbott at Thu Nov  7 14:29:37 2019
Module time:
	user time   =       0.31 seconds =       0.01 minutes
	system time =       0.00 seconds =       0.00 minutes
	total time  =          0 seconds =       0.00 minutes
Total time:
	user time   =       0.31 seconds =       0.01 minutes
	system time =       0.00 seconds =       0.00 minutes
	total time  =          0 seconds =       0.00 minutes
   => Loading Basis Set <=

    Name: ANONYMOUSE20A9DEE
    Role: ORBITAL
    Keyword: None
    atoms 1 entry H          line     5 inputblock s_orb 
    atoms 2 entry LI         line     9 inputblock s_orb 


    Psi4 stopped on: Thursday, 07 November 2019 02:29PM
    Psi4 wall time for execution: 0:00:00.35

*** Psi4 exiting successfully. Buy a developer a beer!
