
    -----------------------------------------------------------------------
          Psi4: An Open-Source Ab Initio Electronic Structure Package
                               Psi4 1.3.2 release

                         Git: Rev {HEAD} ecbda83 


    R. M. Parrish, L. A. Burns, D. G. A. Smith, A. C. Simmonett,
    A. E. DePrince III, E. G. Hohenstein, U. Bozkaya, A. Yu. Sokolov,
    R. Di Remigio, R. M. Richard, J. F. Gonthier, A. M. James,
    H. R. McAlexander, A. Kumar, M. Saitow, X. Wang, B. P. Pritchard,
    P. Verma, H. F. Schaefer III, K. Patkowski, R. A. King, E. F. Valeev,
    F. A. Evangelista, J. M. Turney, T. D. Crawford, and C. D. Sherrill,
    J. Chem. Theory Comput. 13(7) pp 3185--3197 (2017).
    (doi: 10.1021/acs.jctc.7b00174)


                         Additional Contributions by
    P. Kraus, H. Kruse, M. H. Lechner, M. C. Schieber, R. A. Shaw,
    A. Alenaizan, R. Galvelis, Z. L. Glick, S. Lehtola, and J. P. Misiewicz

    -----------------------------------------------------------------------


    Psi4 started on: Thursday, 07 November 2019 02:36PM

    Process ID: 6899
    Host:       adabbott
    PSIDATADIR: /home/adabbott/anaconda3/envs/psijax/share/psi4
    Memory:     500.0 MiB
    Threads:    1
    
  ==> Input File <==

--------------------------------------------------------------------------
import psi4
import numpy as np
np.set_printoptions(linewidth=599)

basis {
assign s_orb
[ s_orb ]
cartesian
****
H     0
F   1   1.00
      0.50000000000      1.0000000000
****
Li     0
F   1   1.00
      0.50000000000      1.0000000000
****
}

molecule h2o {
symmetry c1
units bohr
0 1
H  0.000000000000 0.000000000000 -0.849220457955
Li 0.000000000000 0.000000000000  0.849220457955
}

set scf_type pk
set mp2_type conv
set puream false
set e_convergence 10
set d_convergence 10
e, wfn = energy('hf', return_wfn=True)


mol = wfn.molecule()
bs = wfn.basisset()
basis = psi4.core.BasisSet.build(mol)
mints = psi4.core.MintsHelper(basis)
print(basis.shell(0).coef(0))
print(basis.shell(0).coef(1))
print(basis.shell(1).coef(0))
print(basis.shell(1).coef(1))

S = mints.ao_overlap()
#T = mints.ao_kinetic()
#V = mints.ao_potential()

print(np.asarray(S))
#print(np.asarray(T))
#print(np.asarray(V))


--------------------------------------------------------------------------

*** tstart() called on adabbott
*** at Thu Nov  7 14:36:15 2019

   => Loading Basis Set <=

    Name: ANONYMOUSA3588BB7
    Role: ORBITAL
    Keyword: BASIS
    atoms 1 entry H          line     5 inputblock s_orb 
    atoms 2 entry LI         line     9 inputblock s_orb 


         ---------------------------------------------------------
                                   SCF
               by Justin Turney, Rob Parrish, Andy Simmonett
                          and Daniel G. A. Smith
                              RHF Reference
                        1 Threads,    500 MiB Core
         ---------------------------------------------------------

  ==> Geometry <==

    Molecular point group: c1
    Full point group: C_inf_v

    Geometry (in Bohr), charge = 0, multiplicity = 1:

       Center              X                  Y                   Z               Mass       
    ------------   -----------------  -----------------  -----------------  -----------------
         H            0.000000000000     0.000000000000    -1.485109925913     1.007825032230
         LI           0.000000000000     0.000000000000     0.213330989997     7.016003436600

  Running in c1 symmetry.

  Rotational constants: A = ************  B =     23.68100  C =     23.68100 [cm^-1]
  Rotational constants: A = ************  B = 709938.53229  C = 709938.53229 [MHz]
  Nuclear repulsion =    1.766325794378690

  Charge       = 0
  Multiplicity = 1
  Electrons    = 4
  Nalpha       = 2
  Nbeta        = 2

  ==> Algorithm <==

  SCF Algorithm Type is PK.
  DIIS enabled.
  MOM disabled.
  Fractional occupation disabled.
  Guess Type is SAD.
  Energy threshold   = 1.00e-10
  Density threshold  = 1.00e-10
  Integral threshold = 0.00e+00

  ==> Primary Basis <==

  Basis Set: ANONYMOUSA3588BB7
    Blend: S_ORB
    Number of shells: 2
    Number of basis function: 20
    Number of Cartesian functions: 20
    Spherical Harmonics?: false
    Max angular momentum: 3

  ==> Pre-Iterations <==

   -------------------------------------------------------
    Irrep   Nso     Nmo     Nalpha   Nbeta   Ndocc  Nsocc
   -------------------------------------------------------
     A         20      20       0       0       0       0
   -------------------------------------------------------
    Total      20      20       2       2       2       0
   -------------------------------------------------------

  ==> Integral Setup <==

  Using in-core PK algorithm.
   Calculation information:
      Number of atoms:                   2
      Number of AO shells:               2
      Number of primitives:              2
      Number of atomic orbitals:        20
      Number of basis functions:        20

      Integral cutoff                 1.00e-12
      Number of threads:                 1

  Performing in-core PK
  Using 44310 doubles for integral storage.
  We computed 6 shell quartets total.
  Whereas there are 6 unique shell quartets.

  ==> DiskJK: Disk-Based J/K Matrices <==

    J tasked:                  Yes
    K tasked:                  Yes
    wK tasked:                  No
    Memory [MiB]:              375
    Schwarz Cutoff:          1E-12

    OpenMP threads:              1

  Minimum eigenvalue in the overlap matrix is 5.2329179566E-02.
  Using Symmetric Orthogonalization.

  SCF Guess: Superposition of Atomic Densities via on-the-fly atomic UHF.

  ==> Iterations <==

                        Total Energy        Delta E     RMS |[F,P]|

   @RHF iter SAD:     0.61904449519887    6.19044e-01   0.00000e+00 
   @RHF iter   1:    -1.68750827100595   -2.30655e+00   4.77809e-03 DIIS
   @RHF iter   2:    -1.69396645179762   -6.45818e-03   8.54283e-04 DIIS
   @RHF iter   3:    -1.69442063998283   -4.54188e-04   2.99655e-04 DIIS
   @RHF iter   4:    -1.69471513509919   -2.94495e-04   2.95364e-04 DIIS
   @RHF iter   5:    -1.69448811187872    2.27023e-04   2.36831e-04 DIIS
   @RHF iter   6:    -1.69414085988914    3.47252e-04   2.70452e-05 DIIS
   @RHF iter   7:    -1.69414082442010    3.54690e-08   6.50352e-06 DIIS
   @RHF iter   8:    -1.69414083191836   -7.49826e-09   9.27566e-07 DIIS
   @RHF iter   9:    -1.69414083221185   -2.93498e-10   4.42889e-08 DIIS
   @RHF iter  10:    -1.69414083221208   -2.24709e-13   1.26627e-08 DIIS
   @RHF iter  11:    -1.69414083221218   -1.00586e-13   1.57092e-09 DIIS
   @RHF iter  12:    -1.69414083221218   -1.11022e-15   8.03668e-11 DIIS
  Energy and wave function converged.


  ==> Post-Iterations <==

    Orbital Energies [Eh]
    ---------------------

    Doubly Occupied:                                                      

       1A     -0.438348     2A     -0.004065  

    Virtual:                                                              

       3A      0.266242     4A      0.327864     5A      0.968184  
       6A      0.982846     7A      1.553170     8A      1.666359  
       9A      1.667496    10A      1.724271    11A      1.776393  
      12A      1.810833    13A      1.848880    14A      1.851738  
      15A      2.094077    16A      2.110478    17A      2.113967  
      18A      2.133919    19A      2.403189    20A      2.403305  

    Final Occupation by Irrep:
              A 
    DOCC [     2 ]

  @RHF Final Energy:    -1.69414083221218

   => Energetics <=

    Nuclear Repulsion Energy =              1.7663257943786896
    One-Electron Energy =                  -6.0361081405955179
    Two-Electron Energy =                   2.5756415140046482
    Total Energy =                         -1.6941408322121805

Computation Completed


Properties will be evaluated at   0.000000,   0.000000,   0.000000 [a0]

Properties computed using the SCF density matrix

  Nuclear Dipole Moment: [e a0]
     X:     0.0000      Y:     0.0000      Z:    -0.8451

  Electronic Dipole Moment: [e a0]
     X:    -0.0000      Y:     0.0000      Z:     3.2059

  Dipole Moment: [e a0]
     X:    -0.0000      Y:     0.0000      Z:     2.3608     Total:     2.3608

  Dipole Moment: [D]
     X:    -0.0000      Y:     0.0000      Z:     6.0006     Total:     6.0006


*** tstop() called on adabbott at Thu Nov  7 14:36:16 2019
Module time:
	user time   =       0.32 seconds =       0.01 minutes
	system time =       0.01 seconds =       0.00 minutes
	total time  =          1 seconds =       0.02 minutes
Total time:
	user time   =       0.32 seconds =       0.01 minutes
	system time =       0.01 seconds =       0.00 minutes
	total time  =          1 seconds =       0.02 minutes
   => Loading Basis Set <=

    Name: ANONYMOUSA3588BB7
    Role: ORBITAL
    Keyword: None
    atoms 1 entry H          line     5 inputblock s_orb 
    atoms 2 entry LI         line     9 inputblock s_orb 


    Psi4 stopped on: Thursday, 07 November 2019 02:36PM
    Psi4 wall time for execution: 0:00:00.39

*** Psi4 exiting successfully. Buy a developer a beer!
