
Host: adabbott

Timers On : Mon May 25 13:35:54 2020
Timers Off: Mon May 25 13:35:55 2020

Wall Time:        1.66 seconds

                                                       Time (seconds)
Module                                       User      System        Wall        Calls

--------------------------------------------------------------------------------------

**************************************************************************************

Host: adabbott

Timers On : Mon May 25 13:36:19 2020
Timers Off: Mon May 25 13:36:20 2020

Wall Time:        0.94 seconds

                                                       Time (seconds)
Module                                       User      System        Wall        Calls

--------------------------------------------------------------------------------------

**************************************************************************************

Host: adabbott

Timers On : Mon May 25 13:38:39 2020
Timers Off: Mon May 25 13:38:39 2020

Wall Time:        0.66 seconds

                                                       Time (seconds)
Module                                       User      System        Wall        Calls

--------------------------------------------------------------------------------------

**************************************************************************************

Host: adabbott

Timers On : Mon May 25 13:39:30 2020
Timers Off: Mon May 25 13:39:30 2020

Wall Time:        0.66 seconds

                                                       Time (seconds)
Module                                       User      System        Wall        Calls

--------------------------------------------------------------------------------------

**************************************************************************************

Host: adabbott

Timers On : Mon May 25 13:41:00 2020
Timers Off: Mon May 25 13:41:01 2020

Wall Time:        0.66 seconds

                                                       Time (seconds)
Module                                       User      System        Wall        Calls

--------------------------------------------------------------------------------------

**************************************************************************************

Host: adabbott

Timers On : Mon May 25 13:41:08 2020
Timers Off: Mon May 25 13:41:09 2020

Wall Time:        0.65 seconds

                                                       Time (seconds)
Module                                       User      System        Wall        Calls

--------------------------------------------------------------------------------------

**************************************************************************************

Host: adabbott

Timers On : Mon May 25 13:41:25 2020
Timers Off: Mon May 25 13:41:25 2020

Wall Time:        0.66 seconds

                                                       Time (seconds)
Module                                       User      System        Wall        Calls

--------------------------------------------------------------------------------------

**************************************************************************************

Host: adabbott

Timers On : Mon May 25 13:43:04 2020
Timers Off: Mon May 25 13:43:04 2020

Wall Time:        0.66 seconds

                                                       Time (seconds)
Module                                       User      System        Wall        Calls

--------------------------------------------------------------------------------------

**************************************************************************************

Host: adabbott

Timers On : Mon May 25 13:43:11 2020
Timers Off: Mon May 25 13:43:12 2020

Wall Time:        0.66 seconds

                                                       Time (seconds)
Module                                       User      System        Wall        Calls

--------------------------------------------------------------------------------------

**************************************************************************************

Host: adabbott

Timers On : Mon May 25 13:44:15 2020
Timers Off: Mon May 25 13:44:15 2020

Wall Time:        0.66 seconds

                                                       Time (seconds)
Module                                       User      System        Wall        Calls

--------------------------------------------------------------------------------------

**************************************************************************************

Host: adabbott

Timers On : Mon May 25 13:44:22 2020
Timers Off: Mon May 25 13:44:22 2020

Wall Time:        0.67 seconds

                                                       Time (seconds)
Module                                       User      System        Wall        Calls

--------------------------------------------------------------------------------------

**************************************************************************************

Host: adabbott

Timers On : Mon May 25 13:45:18 2020
Timers Off: Mon May 25 13:45:19 2020

Wall Time:        0.68 seconds

                                                       Time (seconds)
Module                                       User      System        Wall        Calls

--------------------------------------------------------------------------------------

**************************************************************************************

Host: adabbott

Timers On : Mon May 25 13:46:06 2020
Timers Off: Mon May 25 13:46:06 2020

Wall Time:        0.65 seconds

                                                       Time (seconds)
Module                                       User      System        Wall        Calls

--------------------------------------------------------------------------------------

**************************************************************************************

Host: adabbott

Timers On : Mon May 25 13:46:13 2020
Timers Off: Mon May 25 13:46:14 2020

Wall Time:        0.65 seconds

                                                       Time (seconds)
Module                                       User      System        Wall        Calls

--------------------------------------------------------------------------------------

**************************************************************************************

Host: adabbott

Timers On : Mon May 25 13:47:52 2020
Timers Off: Mon May 25 13:47:52 2020

Wall Time:        0.65 seconds

                                                       Time (seconds)
Module                                       User      System        Wall        Calls

--------------------------------------------------------------------------------------

**************************************************************************************

Host: adabbott

Timers On : Mon May 25 13:48:04 2020
Timers Off: Mon May 25 13:48:04 2020

Wall Time:        0.65 seconds

                                                       Time (seconds)
Module                                       User      System        Wall        Calls

--------------------------------------------------------------------------------------

**************************************************************************************

Host: adabbott

Timers On : Mon May 25 13:48:24 2020
Timers Off: Mon May 25 13:48:25 2020

Wall Time:        0.69 seconds

                                                       Time (seconds)
Module                                       User      System        Wall        Calls

--------------------------------------------------------------------------------------

**************************************************************************************

Host: adabbott

Timers On : Mon May 25 13:49:22 2020
Timers Off: Mon May 25 13:49:23 2020

Wall Time:        0.67 seconds

                                                       Time (seconds)
Module                                       User      System        Wall        Calls

--------------------------------------------------------------------------------------

**************************************************************************************

Host: adabbott

Timers On : Mon May 25 13:49:55 2020
Timers Off: Mon May 25 13:49:56 2020

Wall Time:        0.96 seconds

                                                       Time (seconds)
Module                                       User      System        Wall        Calls

--------------------------------------------------------------------------------------

**************************************************************************************

Host: adabbott

Timers On : Mon May 25 13:50:35 2020
Timers Off: Mon May 25 13:50:35 2020

Wall Time:        0.86 seconds

                                                       Time (seconds)
Module                                       User      System        Wall        Calls

--------------------------------------------------------------------------------------

**************************************************************************************

Host: adabbott

Timers On : Mon May 25 13:53:17 2020
Timers Off: Mon May 25 13:53:17 2020

Wall Time:        0.52 seconds

                                                       Time (seconds)
Module                                       User      System        Wall        Calls

--------------------------------------------------------------------------------------

**************************************************************************************

Host: adabbott

Timers On : Mon May 25 13:53:31 2020
Timers Off: Mon May 25 13:53:32 2020

Wall Time:        1.31 seconds

                                                       Time (seconds)
Module                                       User      System        Wall        Calls

--------------------------------------------------------------------------------------

**************************************************************************************

Host: adabbott

Timers On : Mon May 25 13:54:19 2020
Timers Off: Mon May 25 13:54:20 2020

Wall Time:        0.80 seconds

                                                       Time (seconds)
Module                                       User      System        Wall        Calls

--------------------------------------------------------------------------------------

**************************************************************************************

Host: adabbott

Timers On : Mon May 25 13:57:49 2020
Timers Off: Mon May 25 13:57:49 2020

Wall Time:        0.80 seconds

                                                       Time (seconds)
Module                                       User      System        Wall        Calls

--------------------------------------------------------------------------------------

**************************************************************************************

Host: adabbott

Timers On : Mon May 25 13:57:59 2020
Timers Off: Mon May 25 13:58:00 2020

Wall Time:        0.82 seconds

                                                       Time (seconds)
Module                                       User      System        Wall        Calls

--------------------------------------------------------------------------------------

**************************************************************************************

Host: adabbott

Timers On : Mon May 25 14:02:16 2020
Timers Off: Mon May 25 14:02:17 2020

Wall Time:        0.82 seconds

                                                       Time (seconds)
Module                                       User      System        Wall        Calls

--------------------------------------------------------------------------------------

**************************************************************************************

Host: adabbott

Timers On : Mon May 25 14:05:40 2020
Timers Off: Mon May 25 14:05:41 2020

Wall Time:        0.86 seconds

                                                       Time (seconds)
Module                                       User      System        Wall        Calls

--------------------------------------------------------------------------------------

**************************************************************************************

Host: adabbott

Timers On : Mon May 25 14:06:07 2020
Timers Off: Mon May 25 14:06:08 2020

Wall Time:        0.81 seconds

                                                       Time (seconds)
Module                                       User      System        Wall        Calls

--------------------------------------------------------------------------------------

**************************************************************************************

Host: adabbott

Timers On : Mon May 25 14:12:42 2020
Timers Off: Mon May 25 14:12:42 2020

Wall Time:        0.52 seconds

                                                       Time (seconds)
Module                                       User      System        Wall        Calls

--------------------------------------------------------------------------------------

**************************************************************************************

Host: adabbott

Timers On : Mon May 25 14:12:50 2020
Timers Off: Mon May 25 14:12:51 2020

Wall Time:        0.51 seconds

                                                       Time (seconds)
Module                                       User      System        Wall        Calls

--------------------------------------------------------------------------------------

**************************************************************************************

Host: adabbott

Timers On : Mon May 25 14:15:26 2020
Timers Off: Mon May 25 14:15:27 2020

Wall Time:        0.80 seconds

                                                       Time (seconds)
Module                                       User      System        Wall        Calls

--------------------------------------------------------------------------------------

**************************************************************************************

Host: adabbott

Timers On : Mon May 25 14:16:50 2020
Timers Off: Mon May 25 14:16:50 2020

Wall Time:        0.51 seconds

                                                       Time (seconds)
Module                                       User      System        Wall        Calls

--------------------------------------------------------------------------------------

**************************************************************************************

Host: adabbott

Timers On : Mon May 25 14:18:57 2020
Timers Off: Mon May 25 14:18:58 2020

Wall Time:        0.52 seconds

                                                       Time (seconds)
Module                                       User      System        Wall        Calls

--------------------------------------------------------------------------------------

**************************************************************************************

Host: adabbott

Timers On : Mon May 25 14:19:17 2020
Timers Off: Mon May 25 14:19:18 2020

Wall Time:        0.78 seconds

                                                       Time (seconds)
Module                                       User      System        Wall        Calls

--------------------------------------------------------------------------------------

**************************************************************************************

Host: adabbott

Timers On : Mon May 25 14:21:01 2020
Timers Off: Mon May 25 14:21:01 2020

Wall Time:        0.51 seconds

                                                       Time (seconds)
Module                                       User      System        Wall        Calls

--------------------------------------------------------------------------------------

**************************************************************************************

Host: adabbott

Timers On : Mon May 25 14:21:10 2020
Timers Off: Mon May 25 14:21:11 2020

Wall Time:        0.79 seconds

                                                       Time (seconds)
Module                                       User      System        Wall        Calls

--------------------------------------------------------------------------------------

**************************************************************************************

Host: adabbott

Timers On : Mon May 25 14:21:28 2020
Timers Off: Mon May 25 14:21:29 2020

Wall Time:        1.06 seconds

                                                       Time (seconds)
Module                                       User      System        Wall        Calls

--------------------------------------------------------------------------------------

**************************************************************************************

Host: adabbott

Timers On : Mon May 25 14:21:49 2020
Timers Off: Mon May 25 14:21:50 2020

Wall Time:        1.18 seconds

                                                       Time (seconds)
Module                                       User      System        Wall        Calls

--------------------------------------------------------------------------------------

**************************************************************************************

Host: adabbott

Timers On : Mon May 25 14:29:31 2020
Timers Off: Mon May 25 14:29:31 2020

Wall Time:        0.51 seconds

                                                       Time (seconds)
Module                                       User      System        Wall        Calls

--------------------------------------------------------------------------------------

**************************************************************************************

Host: adabbott

Timers On : Mon May 25 14:29:42 2020
Timers Off: Mon May 25 14:29:43 2020

Wall Time:        0.91 seconds

                                                       Time (seconds)
Module                                       User      System        Wall        Calls

--------------------------------------------------------------------------------------

**************************************************************************************

Host: adabbott

Timers On : Mon May 25 14:29:51 2020
Timers Off: Mon May 25 14:29:52 2020

Wall Time:        0.93 seconds

                                                       Time (seconds)
Module                                       User      System        Wall        Calls

--------------------------------------------------------------------------------------

**************************************************************************************

Host: adabbott

Timers On : Mon May 25 14:33:13 2020
Timers Off: Mon May 25 14:33:14 2020

Wall Time:        0.97 seconds

                                                       Time (seconds)
Module                                       User      System        Wall        Calls

--------------------------------------------------------------------------------------

**************************************************************************************

Host: adabbott

Timers On : Mon May 25 14:34:03 2020
Timers Off: Mon May 25 14:34:04 2020

Wall Time:        0.97 seconds

                                                       Time (seconds)
Module                                       User      System        Wall        Calls

--------------------------------------------------------------------------------------

**************************************************************************************

Host: adabbott

Timers On : Mon May 25 14:34:45 2020
Timers Off: Mon May 25 14:34:46 2020

Wall Time:        0.91 seconds

                                                       Time (seconds)
Module                                       User      System        Wall        Calls

--------------------------------------------------------------------------------------

**************************************************************************************

Host: adabbott

Timers On : Mon May 25 14:35:04 2020
Timers Off: Mon May 25 14:35:05 2020

Wall Time:        0.87 seconds

                                                       Time (seconds)
Module                                       User      System        Wall        Calls

--------------------------------------------------------------------------------------

**************************************************************************************

Host: adabbott

Timers On : Mon May 25 14:35:16 2020
Timers Off: Mon May 25 14:35:16 2020

Wall Time:        0.88 seconds

                                                       Time (seconds)
Module                                       User      System        Wall        Calls

--------------------------------------------------------------------------------------

**************************************************************************************

Host: adabbott

Timers On : Mon May 25 14:35:45 2020
Timers Off: Mon May 25 14:35:45 2020

Wall Time:        0.94 seconds

                                                       Time (seconds)
Module                                       User      System        Wall        Calls

--------------------------------------------------------------------------------------

**************************************************************************************

Host: adabbott

Timers On : Mon May 25 14:35:57 2020
Timers Off: Mon May 25 14:35:57 2020

Wall Time:        0.97 seconds

                                                       Time (seconds)
Module                                       User      System        Wall        Calls

--------------------------------------------------------------------------------------

**************************************************************************************

Host: adabbott

Timers On : Mon May 25 14:36:10 2020
Timers Off: Mon May 25 14:36:11 2020

Wall Time:        0.95 seconds

                                                       Time (seconds)
Module                                       User      System        Wall        Calls

--------------------------------------------------------------------------------------

**************************************************************************************

Host: adabbott

Timers On : Mon May 25 14:36:22 2020
Timers Off: Mon May 25 14:36:23 2020

Wall Time:        0.96 seconds

                                                       Time (seconds)
Module                                       User      System        Wall        Calls

--------------------------------------------------------------------------------------

**************************************************************************************

Host: adabbott

Timers On : Mon May 25 14:36:55 2020
Timers Off: Mon May 25 14:37:16 2020

Wall Time:       21.05 seconds

                                                       Time (seconds)
Module                                       User      System        Wall        Calls

--------------------------------------------------------------------------------------

**************************************************************************************

Host: adabbott

Timers On : Mon May 25 15:13:38 2020
Timers Off: Mon May 25 15:14:02 2020

Wall Time:       24.37 seconds

                                                       Time (seconds)
Module                                       User      System        Wall        Calls

--------------------------------------------------------------------------------------

**************************************************************************************

Host: adabbott

Timers On : Mon May 25 16:13:20 2020
Timers Off: Mon May 25 16:13:42 2020

Wall Time:       21.61 seconds

                                                       Time (seconds)
Module                                       User      System        Wall        Calls

--------------------------------------------------------------------------------------

**************************************************************************************

Host: adabbott

Timers On : Mon May 25 16:13:59 2020
Timers Off: Mon May 25 16:14:21 2020

Wall Time:       21.49 seconds

                                                       Time (seconds)
Module                                       User      System        Wall        Calls

--------------------------------------------------------------------------------------

**************************************************************************************

Host: adabbott

Timers On : Mon May 25 16:16:48 2020
Timers Off: Mon May 25 16:17:09 2020

Wall Time:       20.97 seconds

                                                       Time (seconds)
Module                                       User      System        Wall        Calls

--------------------------------------------------------------------------------------

**************************************************************************************

Host: adabbott

Timers On : Mon May 25 16:19:14 2020
Timers Off: Mon May 25 16:19:35 2020

Wall Time:       21.36 seconds

                                                       Time (seconds)
Module                                       User      System        Wall        Calls

--------------------------------------------------------------------------------------

**************************************************************************************

Host: adabbott

Timers On : Mon May 25 16:20:55 2020
Timers Off: Mon May 25 16:21:16 2020

Wall Time:       21.64 seconds

                                                       Time (seconds)
Module                                       User      System        Wall        Calls

--------------------------------------------------------------------------------------

**************************************************************************************

Host: adabbott

Timers On : Mon May 25 16:38:54 2020
Timers Off: Mon May 25 16:39:16 2020

Wall Time:       21.84 seconds

                                                       Time (seconds)
Module                                       User      System        Wall        Calls

--------------------------------------------------------------------------------------

**************************************************************************************

Host: adabbott

Timers On : Mon May 25 16:48:38 2020
Timers Off: Mon May 25 16:49:00 2020

Wall Time:       21.39 seconds

                                                       Time (seconds)
Module                                       User      System        Wall        Calls

--------------------------------------------------------------------------------------

**************************************************************************************

Host: adabbott

Timers On : Mon May 25 16:50:07 2020
Timers Off: Mon May 25 16:50:28 2020

Wall Time:       21.45 seconds

                                                       Time (seconds)
Module                                       User      System        Wall        Calls

--------------------------------------------------------------------------------------

**************************************************************************************

Host: adabbott

Timers On : Mon May 25 16:50:38 2020
Timers Off: Mon May 25 16:51:00 2020

Wall Time:       21.71 seconds

                                                       Time (seconds)
Module                                       User      System        Wall        Calls

--------------------------------------------------------------------------------------

**************************************************************************************

Host: adabbott

Timers On : Mon May 25 16:51:25 2020
Timers Off: Mon May 25 16:51:46 2020

Wall Time:       21.34 seconds

                                                       Time (seconds)
Module                                       User      System        Wall        Calls

--------------------------------------------------------------------------------------

**************************************************************************************

Host: adabbott

Timers On : Mon May 25 16:52:06 2020
Timers Off: Mon May 25 16:52:27 2020

Wall Time:       21.24 seconds

                                                       Time (seconds)
Module                                       User      System        Wall        Calls

--------------------------------------------------------------------------------------

**************************************************************************************

Host: adabbott

Timers On : Mon May 25 16:56:28 2020
Timers Off: Mon May 25 16:56:29 2020

Wall Time:        0.96 seconds

                                                       Time (seconds)
Module                                       User      System        Wall        Calls

--------------------------------------------------------------------------------------

**************************************************************************************

Host: adabbott

Timers On : Mon May 25 16:56:55 2020
Timers Off: Mon May 25 16:56:56 2020

Wall Time:        0.94 seconds

                                                       Time (seconds)
Module                                       User      System        Wall        Calls

--------------------------------------------------------------------------------------

**************************************************************************************

Host: adabbott

Timers On : Mon May 25 16:57:27 2020
Timers Off: Mon May 25 16:57:28 2020

Wall Time:        0.94 seconds

                                                       Time (seconds)
Module                                       User      System        Wall        Calls

--------------------------------------------------------------------------------------

**************************************************************************************

Host: adabbott

Timers On : Mon May 25 16:57:42 2020
Timers Off: Mon May 25 16:57:43 2020

Wall Time:        0.95 seconds

                                                       Time (seconds)
Module                                       User      System        Wall        Calls

--------------------------------------------------------------------------------------

**************************************************************************************

Host: adabbott

Timers On : Mon May 25 16:59:25 2020
Timers Off: Mon May 25 16:59:26 2020

Wall Time:        1.06 seconds

                                                       Time (seconds)
Module                                       User      System        Wall        Calls

--------------------------------------------------------------------------------------

**************************************************************************************

Host: adabbott

Timers On : Mon May 25 16:59:58 2020
Timers Off: Mon May 25 16:59:59 2020

Wall Time:        1.05 seconds

                                                       Time (seconds)
Module                                       User      System        Wall        Calls

--------------------------------------------------------------------------------------

**************************************************************************************

Host: adabbott

Timers On : Mon May 25 17:00:38 2020
Timers Off: Mon May 25 17:00:39 2020

Wall Time:        0.98 seconds

                                                       Time (seconds)
Module                                       User      System        Wall        Calls

--------------------------------------------------------------------------------------

**************************************************************************************

Host: adabbott

Timers On : Mon May 25 17:07:27 2020
Timers Off: Mon May 25 17:07:48 2020

Wall Time:       21.35 seconds

                                                       Time (seconds)
Module                                       User      System        Wall        Calls

--------------------------------------------------------------------------------------

**************************************************************************************

Host: adabbott

Timers On : Mon May 25 17:08:18 2020
Timers Off: Mon May 25 17:08:40 2020

Wall Time:       21.59 seconds

                                                       Time (seconds)
Module                                       User      System        Wall        Calls

--------------------------------------------------------------------------------------

**************************************************************************************

Host: adabbott

Timers On : Mon May 25 17:09:50 2020
Timers Off: Mon May 25 17:10:11 2020

Wall Time:       21.32 seconds

                                                       Time (seconds)
Module                                       User      System        Wall        Calls

--------------------------------------------------------------------------------------

**************************************************************************************

Host: adabbott

Timers On : Mon May 25 17:11:28 2020
Timers Off: Mon May 25 17:11:34 2020

Wall Time:        6.29 seconds

                                                       Time (seconds)
Module                                       User      System        Wall        Calls

--------------------------------------------------------------------------------------

**************************************************************************************

Host: adabbott

Timers On : Mon May 25 17:17:27 2020
Timers Off: Mon May 25 17:17:28 2020

Wall Time:        0.51 seconds

                                                       Time (seconds)
Module                                       User      System        Wall        Calls

--------------------------------------------------------------------------------------

**************************************************************************************

Host: adabbott

Timers On : Mon May 25 17:17:35 2020
Timers Off: Mon May 25 17:17:35 2020

Wall Time:        0.79 seconds

                                                       Time (seconds)
Module                                       User      System        Wall        Calls

--------------------------------------------------------------------------------------

**************************************************************************************

Host: adabbott

Timers On : Mon May 25 17:18:14 2020
Timers Off: Mon May 25 17:18:36 2020

Wall Time:       22.43 seconds

                                                       Time (seconds)
Module                                       User      System        Wall        Calls

--------------------------------------------------------------------------------------

**************************************************************************************

Host: adabbott

Timers On : Tue May 26 11:22:39 2020
Timers Off: Tue May 26 11:23:05 2020

Wall Time:       25.81 seconds

                                                       Time (seconds)
Module                                       User      System        Wall        Calls

--------------------------------------------------------------------------------------

**************************************************************************************

Host: adabbott

Timers On : Tue May 26 11:24:20 2020
Timers Off: Tue May 26 11:24:45 2020

Wall Time:       25.85 seconds

                                                       Time (seconds)
Module                                       User      System        Wall        Calls

--------------------------------------------------------------------------------------

**************************************************************************************

Host: adabbott

Timers On : Tue May 26 11:28:01 2020
Timers Off: Tue May 26 11:28:27 2020

Wall Time:       25.66 seconds

                                                       Time (seconds)
Module                                       User      System        Wall        Calls

--------------------------------------------------------------------------------------

**************************************************************************************

Host: adabbott

Timers On : Tue May 26 12:38:27 2020
Timers Off: Tue May 26 12:38:29 2020

Wall Time:        1.51 seconds

                                                       Time (seconds)
Module                                       User      System        Wall        Calls

--------------------------------------------------------------------------------------

**************************************************************************************

Host: adabbott

Timers On : Tue May 26 12:38:43 2020
Timers Off: Tue May 26 12:39:08 2020

Wall Time:       25.72 seconds

                                                       Time (seconds)
Module                                       User      System        Wall        Calls

--------------------------------------------------------------------------------------

**************************************************************************************

Host: adabbott

Timers On : Tue May 26 12:43:27 2020
Timers Off: Tue May 26 12:43:51 2020

Wall Time:       23.36 seconds

                                                       Time (seconds)
Module                                       User      System        Wall        Calls

--------------------------------------------------------------------------------------

**************************************************************************************

Host: adabbott

Timers On : Tue May 26 12:45:39 2020
Timers Off: Tue May 26 12:46:39 2020

Wall Time:       60.10 seconds

                                                       Time (seconds)
Module                                       User      System        Wall        Calls

--------------------------------------------------------------------------------------

**************************************************************************************

Host: adabbott

Timers On : Tue May 26 12:47:34 2020
Timers Off: Tue May 26 12:48:34 2020

Wall Time:       60.67 seconds

                                                       Time (seconds)
Module                                       User      System        Wall        Calls

--------------------------------------------------------------------------------------

**************************************************************************************

Host: adabbott

Timers On : Sun May 31 14:36:27 2020
Timers Off: Sun May 31 14:37:35 2020

Wall Time:       67.93 seconds

                                                       Time (seconds)
Module                                       User      System        Wall        Calls

--------------------------------------------------------------------------------------

**************************************************************************************

Host: adabbott

Timers On : Sat Jun  6 15:13:18 2020
Timers Off: Sat Jun  6 15:13:18 2020

Wall Time:        0.60 seconds

                                                       Time (seconds)
Module                                       User      System        Wall        Calls

--------------------------------------------------------------------------------------

**************************************************************************************

Host: adabbott

Timers On : Sat Jun  6 15:14:06 2020
Timers Off: Sat Jun  6 15:14:06 2020

Wall Time:        0.60 seconds

                                                       Time (seconds)
Module                                       User      System        Wall        Calls

--------------------------------------------------------------------------------------

**************************************************************************************

Host: adabbott

Timers On : Sat Jun  6 15:15:14 2020
Timers Off: Sat Jun  6 15:15:15 2020

Wall Time:        0.60 seconds

                                                       Time (seconds)
Module                                       User      System        Wall        Calls

--------------------------------------------------------------------------------------

**************************************************************************************

Host: adabbott

Timers On : Sat Jun  6 15:15:27 2020
Timers Off: Sat Jun  6 15:15:28 2020

Wall Time:        0.72 seconds

                                                       Time (seconds)
Module                                       User      System        Wall        Calls

--------------------------------------------------------------------------------------

**************************************************************************************

Host: adabbott

Timers On : Sat Jun  6 15:15:51 2020
Timers Off: Sat Jun  6 15:15:52 2020

Wall Time:        0.70 seconds

                                                       Time (seconds)
Module                                       User      System        Wall        Calls

--------------------------------------------------------------------------------------

**************************************************************************************

Host: adabbott

Timers On : Sat Jun  6 15:16:17 2020
Timers Off: Sat Jun  6 15:16:18 2020

Wall Time:        0.69 seconds

                                                       Time (seconds)
Module                                       User      System        Wall        Calls

--------------------------------------------------------------------------------------

**************************************************************************************

Host: adabbott

Timers On : Sat Jun  6 15:16:25 2020
Timers Off: Sat Jun  6 15:16:26 2020

Wall Time:        0.70 seconds

                                                       Time (seconds)
Module                                       User      System        Wall        Calls

--------------------------------------------------------------------------------------

**************************************************************************************

Host: adabbott

Timers On : Sat Jun  6 15:19:18 2020
Timers Off: Sat Jun  6 15:19:19 2020

Wall Time:        0.78 seconds

                                                       Time (seconds)
Module                                       User      System        Wall        Calls

--------------------------------------------------------------------------------------

**************************************************************************************

Host: adabbott

Timers On : Sat Jun  6 15:19:34 2020
Timers Off: Sat Jun  6 15:19:35 2020

Wall Time:        0.78 seconds

                                                       Time (seconds)
Module                                       User      System        Wall        Calls

--------------------------------------------------------------------------------------

**************************************************************************************

Host: adabbott

Timers On : Sat Jun  6 15:31:19 2020
Timers Off: Sat Jun  6 15:31:20 2020

Wall Time:        0.96 seconds

                                                       Time (seconds)
Module                                       User      System        Wall        Calls

--------------------------------------------------------------------------------------

**************************************************************************************

Host: adabbott

Timers On : Sat Jun  6 15:31:33 2020
Timers Off: Sat Jun  6 15:31:34 2020

Wall Time:        0.70 seconds

                                                       Time (seconds)
Module                                       User      System        Wall        Calls

--------------------------------------------------------------------------------------

**************************************************************************************

Host: adabbott

Timers On : Sat Jun  6 15:32:39 2020
Timers Off: Sat Jun  6 15:32:40 2020

Wall Time:        0.69 seconds

                                                       Time (seconds)
Module                                       User      System        Wall        Calls

--------------------------------------------------------------------------------------

**************************************************************************************

Host: adabbott

Timers On : Sat Jun  6 15:32:54 2020
Timers Off: Sat Jun  6 15:32:55 2020

Wall Time:        0.71 seconds

                                                       Time (seconds)
Module                                       User      System        Wall        Calls

--------------------------------------------------------------------------------------

**************************************************************************************

Host: adabbott

Timers On : Sat Jun  6 15:33:11 2020
Timers Off: Sat Jun  6 15:33:11 2020

Wall Time:        0.71 seconds

                                                       Time (seconds)
Module                                       User      System        Wall        Calls

--------------------------------------------------------------------------------------

**************************************************************************************

Host: adabbott

Timers On : Sat Jun  6 15:33:18 2020
Timers Off: Sat Jun  6 15:33:18 2020

Wall Time:        0.70 seconds

                                                       Time (seconds)
Module                                       User      System        Wall        Calls

--------------------------------------------------------------------------------------

**************************************************************************************

Host: adabbott

Timers On : Sat Jun  6 15:40:32 2020
Timers Off: Sat Jun  6 15:40:33 2020

Wall Time:        0.73 seconds

                                                       Time (seconds)
Module                                       User      System        Wall        Calls

--------------------------------------------------------------------------------------

**************************************************************************************

Host: adabbott

Timers On : Sat Jun  6 15:43:59 2020
Timers Off: Sat Jun  6 15:44:00 2020

Wall Time:        0.79 seconds

                                                       Time (seconds)
Module                                       User      System        Wall        Calls

--------------------------------------------------------------------------------------

**************************************************************************************

Host: adabbott

Timers On : Sat Jun  6 15:44:09 2020
Timers Off: Sat Jun  6 15:44:09 2020

Wall Time:        0.79 seconds

                                                       Time (seconds)
Module                                       User      System        Wall        Calls

--------------------------------------------------------------------------------------

**************************************************************************************

Host: adabbott

Timers On : Sat Jun  6 15:47:30 2020
Timers Off: Sat Jun  6 15:47:30 2020

Wall Time:        0.73 seconds

                                                       Time (seconds)
Module                                       User      System        Wall        Calls

--------------------------------------------------------------------------------------

**************************************************************************************

Host: adabbott

Timers On : Sat Jun  6 15:47:35 2020
Timers Off: Sat Jun  6 15:47:36 2020

Wall Time:        0.76 seconds

                                                       Time (seconds)
Module                                       User      System        Wall        Calls

--------------------------------------------------------------------------------------

**************************************************************************************

Host: adabbott

Timers On : Sat Jun  6 15:47:51 2020
Timers Off: Sat Jun  6 15:47:51 2020

Wall Time:        0.84 seconds

                                                       Time (seconds)
Module                                       User      System        Wall        Calls

--------------------------------------------------------------------------------------

**************************************************************************************

Host: adabbott

Timers On : Sat Jun  6 15:48:21 2020
Timers Off: Sat Jun  6 15:48:22 2020

Wall Time:        0.72 seconds

                                                       Time (seconds)
Module                                       User      System        Wall        Calls

--------------------------------------------------------------------------------------

**************************************************************************************

Host: adabbott

Timers On : Sat Jun  6 15:48:26 2020
Timers Off: Sat Jun  6 15:48:27 2020

Wall Time:        0.90 seconds

                                                       Time (seconds)
Module                                       User      System        Wall        Calls

--------------------------------------------------------------------------------------

**************************************************************************************

Host: adabbott

Timers On : Sat Jun  6 15:48:32 2020
Timers Off: Sat Jun  6 15:48:33 2020

Wall Time:        0.89 seconds

                                                       Time (seconds)
Module                                       User      System        Wall        Calls

--------------------------------------------------------------------------------------

**************************************************************************************

Host: adabbott

Timers On : Sat Jun  6 16:10:14 2020
Timers Off: Sat Jun  6 16:10:15 2020

Wall Time:        0.88 seconds

                                                       Time (seconds)
Module                                       User      System        Wall        Calls

--------------------------------------------------------------------------------------

**************************************************************************************
