
Host: adabbott

Timers On : Tue Dec 10 13:53:48 2019
Timers Off: Tue Dec 10 13:53:49 2019

Wall Time:        0.59 seconds

                                                       Time (seconds)
Module                                       User      System        Wall        Calls

--------------------------------------------------------------------------------------

**************************************************************************************

Host: adabbott

Timers On : Tue Dec 10 13:54:18 2019
Timers Off: Tue Dec 10 13:54:19 2019

Wall Time:        1.59 seconds

                                                       Time (seconds)
Module                                       User      System        Wall        Calls

--------------------------------------------------------------------------------------

**************************************************************************************

Host: adabbott

Timers On : Tue Dec 10 13:54:47 2019
Timers Off: Tue Dec 10 13:55:25 2019

Wall Time:       38.22 seconds

                                                       Time (seconds)
Module                                       User      System        Wall        Calls

--------------------------------------------------------------------------------------

**************************************************************************************

Host: adabbott

Timers On : Tue Dec 10 16:58:57 2019
Timers Off: Tue Dec 10 16:59:22 2019

Wall Time:       24.46 seconds

                                                       Time (seconds)
Module                                       User      System        Wall        Calls

--------------------------------------------------------------------------------------

**************************************************************************************

Host: adabbott

Timers On : Tue Dec 10 16:59:44 2019
Timers Off: Tue Dec 10 17:02:59 2019

Wall Time:      195.27 seconds

                                                       Time (seconds)
Module                                       User      System        Wall        Calls

--------------------------------------------------------------------------------------

**************************************************************************************

Host: adabbott

Timers On : Tue Dec 10 17:07:35 2019
Timers Off: Tue Dec 10 17:11:00 2019

Wall Time:      205.08 seconds

                                                       Time (seconds)
Module                                       User      System        Wall        Calls

--------------------------------------------------------------------------------------

**************************************************************************************

Host: adabbott

Timers On : Tue Dec 10 17:21:49 2019
Timers Off: Tue Dec 10 17:22:12 2019

Wall Time:       22.95 seconds

                                                       Time (seconds)
Module                                       User      System        Wall        Calls

--------------------------------------------------------------------------------------

**************************************************************************************

Host: adabbott

Timers On : Tue Dec 10 17:30:19 2019
Timers Off: Tue Dec 10 17:30:43 2019

Wall Time:       24.49 seconds

                                                       Time (seconds)
Module                                       User      System        Wall        Calls

--------------------------------------------------------------------------------------

**************************************************************************************

Host: adabbott

Timers On : Tue Dec 10 17:30:55 2019
Timers Off: Tue Dec 10 17:34:07 2019

Wall Time:      192.80 seconds

                                                       Time (seconds)
Module                                       User      System        Wall        Calls

--------------------------------------------------------------------------------------

**************************************************************************************

Host: adabbott

Timers On : Tue Dec 10 18:12:35 2019
Timers Off: Tue Dec 10 18:15:53 2019

Wall Time:      198.23 seconds

                                                       Time (seconds)
Module                                       User      System        Wall        Calls

--------------------------------------------------------------------------------------

**************************************************************************************

Host: adabbott

Timers On : Tue Dec 10 18:17:40 2019
Timers Off: Tue Dec 10 18:17:41 2019

Wall Time:        0.63 seconds

                                                       Time (seconds)
Module                                       User      System        Wall        Calls

--------------------------------------------------------------------------------------

**************************************************************************************

Host: adabbott

Timers On : Tue Dec 10 18:17:47 2019
Timers Off: Tue Dec 10 18:17:49 2019

Wall Time:        1.14 seconds

                                                       Time (seconds)
Module                                       User      System        Wall        Calls

--------------------------------------------------------------------------------------

**************************************************************************************

Host: adabbott

Timers On : Tue Dec 10 18:19:54 2019
Timers Off: Tue Dec 10 18:25:11 2019

Wall Time:      317.41 seconds

                                                       Time (seconds)
Module                                       User      System        Wall        Calls

--------------------------------------------------------------------------------------

**************************************************************************************

Host: adabbott

Timers On : Tue Dec 10 18:32:54 2019
Timers Off: Tue Dec 10 18:32:55 2019

Wall Time:        0.59 seconds

                                                       Time (seconds)
Module                                       User      System        Wall        Calls

--------------------------------------------------------------------------------------

**************************************************************************************

Host: adabbott

Timers On : Tue Dec 10 18:33:03 2019
Timers Off: Tue Dec 10 18:33:04 2019

Wall Time:        1.01 seconds

                                                       Time (seconds)
Module                                       User      System        Wall        Calls

--------------------------------------------------------------------------------------

**************************************************************************************

Host: adabbott

Timers On : Tue Dec 10 18:33:33 2019
Timers Off: Tue Dec 10 18:36:30 2019

Wall Time:      177.37 seconds

                                                       Time (seconds)
Module                                       User      System        Wall        Calls

--------------------------------------------------------------------------------------

**************************************************************************************

Host: adabbott

Timers On : Tue Dec 10 18:38:37 2019
Timers Off: Tue Dec 10 18:41:34 2019

Wall Time:      177.09 seconds

                                                       Time (seconds)
Module                                       User      System        Wall        Calls

--------------------------------------------------------------------------------------

**************************************************************************************

Host: adabbott

Timers On : Tue Dec 10 18:41:42 2019
Timers Off: Tue Dec 10 18:44:38 2019

Wall Time:      175.48 seconds

                                                       Time (seconds)
Module                                       User      System        Wall        Calls

--------------------------------------------------------------------------------------

**************************************************************************************

Host: adabbott

Timers On : Tue Dec 10 18:46:10 2019
Timers Off: Tue Dec 10 18:49:08 2019

Wall Time:      177.38 seconds

                                                       Time (seconds)
Module                                       User      System        Wall        Calls

--------------------------------------------------------------------------------------

**************************************************************************************

Host: adabbott

Timers On : Tue Dec 10 18:56:23 2019
Timers Off: Tue Dec 10 18:56:47 2019

Wall Time:       24.03 seconds

                                                       Time (seconds)
Module                                       User      System        Wall        Calls

--------------------------------------------------------------------------------------

**************************************************************************************

Host: adabbott

Timers On : Tue Dec 10 18:59:13 2019
Timers Off: Tue Dec 10 18:59:37 2019

Wall Time:       24.08 seconds

                                                       Time (seconds)
Module                                       User      System        Wall        Calls

--------------------------------------------------------------------------------------

**************************************************************************************

Host: adabbott

Timers On : Tue Dec 10 19:00:56 2019
Timers Off: Tue Dec 10 19:01:20 2019

Wall Time:       24.01 seconds

                                                       Time (seconds)
Module                                       User      System        Wall        Calls

--------------------------------------------------------------------------------------

**************************************************************************************

Host: adabbott

Timers On : Tue Dec 10 19:01:22 2019
Timers Off: Tue Dec 10 19:01:49 2019

Wall Time:       26.83 seconds

                                                       Time (seconds)
Module                                       User      System        Wall        Calls

--------------------------------------------------------------------------------------

**************************************************************************************

Host: adabbott

Timers On : Tue Dec 10 19:01:59 2019
Timers Off: Tue Dec 10 19:02:23 2019

Wall Time:       23.68 seconds

                                                       Time (seconds)
Module                                       User      System        Wall        Calls

--------------------------------------------------------------------------------------

**************************************************************************************

Host: adabbott

Timers On : Tue Dec 10 19:02:39 2019
Timers Off: Tue Dec 10 19:03:03 2019

Wall Time:       23.87 seconds

                                                       Time (seconds)
Module                                       User      System        Wall        Calls

--------------------------------------------------------------------------------------

**************************************************************************************

Host: adabbott

Timers On : Tue Dec 10 19:05:58 2019
Timers Off: Tue Dec 10 19:06:22 2019

Wall Time:       23.90 seconds

                                                       Time (seconds)
Module                                       User      System        Wall        Calls

--------------------------------------------------------------------------------------

**************************************************************************************

Host: adabbott

Timers On : Tue Dec 10 19:10:08 2019
Timers Off: Tue Dec 10 19:10:13 2019

Wall Time:        4.86 seconds

                                                       Time (seconds)
Module                                       User      System        Wall        Calls

--------------------------------------------------------------------------------------

**************************************************************************************

Host: adabbott

Timers On : Tue Dec 10 19:10:26 2019
Timers Off: Tue Dec 10 19:10:39 2019

Wall Time:       12.98 seconds

                                                       Time (seconds)
Module                                       User      System        Wall        Calls

--------------------------------------------------------------------------------------

**************************************************************************************

Host: adabbott

Timers On : Tue Dec 10 19:10:50 2019
Timers Off: Tue Dec 10 19:12:06 2019

Wall Time:       75.73 seconds

                                                       Time (seconds)
Module                                       User      System        Wall        Calls

--------------------------------------------------------------------------------------

**************************************************************************************

Host: adabbott

Timers On : Wed Dec 11 12:01:18 2019
Timers Off: Wed Dec 11 12:01:42 2019

Wall Time:       23.91 seconds

                                                       Time (seconds)
Module                                       User      System        Wall        Calls

--------------------------------------------------------------------------------------

**************************************************************************************

Host: adabbott

Timers On : Wed Dec 11 12:01:53 2019
Timers Off: Wed Dec 11 12:02:17 2019

Wall Time:       23.65 seconds

                                                       Time (seconds)
Module                                       User      System        Wall        Calls

--------------------------------------------------------------------------------------

**************************************************************************************

Host: adabbott

Timers On : Wed Dec 11 12:04:42 2019
Timers Off: Wed Dec 11 12:04:43 2019

Wall Time:        1.01 seconds

                                                       Time (seconds)
Module                                       User      System        Wall        Calls

--------------------------------------------------------------------------------------

**************************************************************************************

Host: adabbott

Timers On : Wed Dec 11 12:05:03 2019
Timers Off: Wed Dec 11 12:05:25 2019

Wall Time:       21.97 seconds

                                                       Time (seconds)
Module                                       User      System        Wall        Calls

--------------------------------------------------------------------------------------

**************************************************************************************

Host: adabbott

Timers On : Wed Dec 11 12:05:35 2019
Timers Off: Wed Dec 11 12:08:35 2019

Wall Time:      179.49 seconds

                                                       Time (seconds)
Module                                       User      System        Wall        Calls

--------------------------------------------------------------------------------------

**************************************************************************************

Host: adabbott

Timers On : Wed Dec 11 12:08:43 2019
Timers Off: Wed Dec 11 12:11:53 2019

Wall Time:      189.44 seconds

                                                       Time (seconds)
Module                                       User      System        Wall        Calls

--------------------------------------------------------------------------------------

**************************************************************************************

Host: adabbott

Timers On : Wed Dec 11 12:21:38 2019
Timers Off: Wed Dec 11 12:21:40 2019

Wall Time:        1.62 seconds

                                                       Time (seconds)
Module                                       User      System        Wall        Calls

--------------------------------------------------------------------------------------

**************************************************************************************

Host: adabbott

Timers On : Wed Dec 11 12:21:48 2019
Timers Off: Wed Dec 11 12:22:17 2019

Wall Time:       28.54 seconds

                                                       Time (seconds)
Module                                       User      System        Wall        Calls

--------------------------------------------------------------------------------------

**************************************************************************************

Host: adabbott

Timers On : Wed Dec 11 12:22:40 2019
Timers Off: Wed Dec 11 12:23:04 2019

Wall Time:       23.74 seconds

                                                       Time (seconds)
Module                                       User      System        Wall        Calls

--------------------------------------------------------------------------------------

**************************************************************************************

Host: adabbott

Timers On : Wed Dec 11 12:23:15 2019
Timers Off: Wed Dec 11 12:23:39 2019

Wall Time:       23.71 seconds

                                                       Time (seconds)
Module                                       User      System        Wall        Calls

--------------------------------------------------------------------------------------

**************************************************************************************

Host: adabbott

Timers On : Wed Dec 11 12:24:11 2019
Timers Off: Wed Dec 11 12:27:16 2019

Wall Time:      185.03 seconds

                                                       Time (seconds)
Module                                       User      System        Wall        Calls

--------------------------------------------------------------------------------------

**************************************************************************************

Host: adabbott

Timers On : Wed Dec 11 12:27:35 2019
Timers Off: Wed Dec 11 12:27:36 2019

Wall Time:        1.00 seconds

                                                       Time (seconds)
Module                                       User      System        Wall        Calls

--------------------------------------------------------------------------------------

**************************************************************************************

Host: adabbott

Timers On : Wed Dec 11 12:28:02 2019
Timers Off: Wed Dec 11 12:28:03 2019

Wall Time:        1.02 seconds

                                                       Time (seconds)
Module                                       User      System        Wall        Calls

--------------------------------------------------------------------------------------

**************************************************************************************

Host: adabbott

Timers On : Wed Dec 11 12:29:34 2019
Timers Off: Wed Dec 11 12:29:35 2019

Wall Time:        0.99 seconds

                                                       Time (seconds)
Module                                       User      System        Wall        Calls

--------------------------------------------------------------------------------------

**************************************************************************************

Host: adabbott

Timers On : Wed Dec 11 12:31:39 2019
Timers Off: Wed Dec 11 12:31:40 2019

Wall Time:        1.03 seconds

                                                       Time (seconds)
Module                                       User      System        Wall        Calls

--------------------------------------------------------------------------------------

**************************************************************************************

Host: adabbott

Timers On : Wed Dec 11 12:33:14 2019
Timers Off: Wed Dec 11 12:33:15 2019

Wall Time:        1.01 seconds

                                                       Time (seconds)
Module                                       User      System        Wall        Calls

--------------------------------------------------------------------------------------

**************************************************************************************

Host: adabbott

Timers On : Wed Dec 11 12:33:46 2019
Timers Off: Wed Dec 11 12:34:10 2019

Wall Time:       23.87 seconds

                                                       Time (seconds)
Module                                       User      System        Wall        Calls

--------------------------------------------------------------------------------------

**************************************************************************************

Host: adabbott

Timers On : Wed Dec 11 12:35:03 2019
Timers Off: Wed Dec 11 12:35:27 2019

Wall Time:       23.66 seconds

                                                       Time (seconds)
Module                                       User      System        Wall        Calls

--------------------------------------------------------------------------------------

**************************************************************************************

Host: adabbott

Timers On : Wed Dec 11 12:35:58 2019
Timers Off: Wed Dec 11 12:38:59 2019

Wall Time:      181.35 seconds

                                                       Time (seconds)
Module                                       User      System        Wall        Calls

--------------------------------------------------------------------------------------

**************************************************************************************

Host: adabbott

Timers On : Wed Dec 11 12:39:22 2019
Timers Off: Wed Dec 11 12:42:23 2019

Wall Time:      180.97 seconds

                                                       Time (seconds)
Module                                       User      System        Wall        Calls

--------------------------------------------------------------------------------------

**************************************************************************************

Host: adabbott

Timers On : Wed Dec 11 12:42:33 2019
Timers Off: Wed Dec 11 12:42:57 2019

Wall Time:       24.01 seconds

                                                       Time (seconds)
Module                                       User      System        Wall        Calls

--------------------------------------------------------------------------------------

**************************************************************************************

Host: adabbott

Timers On : Wed Dec 11 12:43:32 2019
Timers Off: Wed Dec 11 12:43:57 2019

Wall Time:       24.52 seconds

                                                       Time (seconds)
Module                                       User      System        Wall        Calls

--------------------------------------------------------------------------------------

**************************************************************************************

Host: adabbott

Timers On : Wed Dec 11 12:57:17 2019
Timers Off: Wed Dec 11 12:57:41 2019

Wall Time:       24.08 seconds

                                                       Time (seconds)
Module                                       User      System        Wall        Calls

--------------------------------------------------------------------------------------

**************************************************************************************

Host: adabbott

Timers On : Wed Dec 11 12:58:46 2019
Timers Off: Wed Dec 11 12:59:10 2019

Wall Time:       24.24 seconds

                                                       Time (seconds)
Module                                       User      System        Wall        Calls

--------------------------------------------------------------------------------------

**************************************************************************************

Host: adabbott

Timers On : Wed Dec 11 12:59:26 2019
Timers Off: Wed Dec 11 13:02:28 2019

Wall Time:      181.95 seconds

                                                       Time (seconds)
Module                                       User      System        Wall        Calls

--------------------------------------------------------------------------------------

**************************************************************************************

Host: adabbott

Timers On : Wed Dec 11 13:03:41 2019
Timers Off: Wed Dec 11 13:04:37 2019

Wall Time:       55.79 seconds

                                                       Time (seconds)
Module                                       User      System        Wall        Calls

--------------------------------------------------------------------------------------

**************************************************************************************

Host: adabbott

Timers On : Wed Dec 11 13:05:40 2019
Timers Off: Wed Dec 11 13:06:24 2019

Wall Time:       44.87 seconds

                                                       Time (seconds)
Module                                       User      System        Wall        Calls

--------------------------------------------------------------------------------------

**************************************************************************************

Host: adabbott

Timers On : Wed Dec 11 13:11:55 2019
Timers Off: Wed Dec 11 13:12:19 2019

Wall Time:       24.02 seconds

                                                       Time (seconds)
Module                                       User      System        Wall        Calls

--------------------------------------------------------------------------------------

**************************************************************************************

Host: adabbott

Timers On : Wed Dec 11 13:13:08 2019
Timers Off: Wed Dec 11 13:13:33 2019

Wall Time:       24.14 seconds

                                                       Time (seconds)
Module                                       User      System        Wall        Calls

--------------------------------------------------------------------------------------

**************************************************************************************

Host: adabbott

Timers On : Wed Dec 11 13:14:09 2019
Timers Off: Wed Dec 11 13:14:33 2019

Wall Time:       24.06 seconds

                                                       Time (seconds)
Module                                       User      System        Wall        Calls

--------------------------------------------------------------------------------------

**************************************************************************************

Host: adabbott

Timers On : Wed Dec 11 13:16:02 2019
Timers Off: Wed Dec 11 13:16:26 2019

Wall Time:       23.92 seconds

                                                       Time (seconds)
Module                                       User      System        Wall        Calls

--------------------------------------------------------------------------------------

**************************************************************************************

Host: adabbott

Timers On : Wed Dec 11 13:20:46 2019
Timers Off: Wed Dec 11 13:21:10 2019

Wall Time:       24.39 seconds

                                                       Time (seconds)
Module                                       User      System        Wall        Calls

--------------------------------------------------------------------------------------

**************************************************************************************

Host: adabbott

Timers On : Wed Dec 11 13:21:24 2019
Timers Off: Wed Dec 11 13:21:49 2019

Wall Time:       24.39 seconds

                                                       Time (seconds)
Module                                       User      System        Wall        Calls

--------------------------------------------------------------------------------------

**************************************************************************************

Host: adabbott

Timers On : Wed Dec 11 13:22:01 2019
Timers Off: Wed Dec 11 13:22:24 2019

Wall Time:       23.79 seconds

                                                       Time (seconds)
Module                                       User      System        Wall        Calls

--------------------------------------------------------------------------------------

**************************************************************************************

Host: adabbott

Timers On : Wed Dec 11 13:23:40 2019
Timers Off: Wed Dec 11 13:24:04 2019

Wall Time:       23.97 seconds

                                                       Time (seconds)
Module                                       User      System        Wall        Calls

--------------------------------------------------------------------------------------

**************************************************************************************

Host: adabbott

Timers On : Wed Dec 11 13:24:08 2019
Timers Off: Wed Dec 11 13:24:32 2019

Wall Time:       24.06 seconds

                                                       Time (seconds)
Module                                       User      System        Wall        Calls

--------------------------------------------------------------------------------------

**************************************************************************************

Host: adabbott

Timers On : Wed Dec 11 13:24:50 2019
Timers Off: Wed Dec 11 13:27:56 2019

Wall Time:      185.63 seconds

                                                       Time (seconds)
Module                                       User      System        Wall        Calls

--------------------------------------------------------------------------------------

**************************************************************************************

Host: adabbott

Timers On : Wed Dec 11 13:34:13 2019
Timers Off: Wed Dec 11 13:37:19 2019

Wall Time:      186.25 seconds

                                                       Time (seconds)
Module                                       User      System        Wall        Calls

--------------------------------------------------------------------------------------

**************************************************************************************

Host: adabbott

Timers On : Wed Dec 11 13:40:35 2019
Timers Off: Wed Dec 11 13:43:37 2019

Wall Time:      181.56 seconds

                                                       Time (seconds)
Module                                       User      System        Wall        Calls

--------------------------------------------------------------------------------------

**************************************************************************************

Host: adabbott

Timers On : Wed Dec 11 13:44:34 2019
Timers Off: Wed Dec 11 14:11:29 2019

Wall Time:     1615.22 seconds

                                                       Time (seconds)
Module                                       User      System        Wall        Calls

--------------------------------------------------------------------------------------

**************************************************************************************

Host: adabbott

Timers On : Wed Dec 11 14:19:40 2019
Timers Off: Wed Dec 11 14:20:05 2019

Wall Time:       24.76 seconds

                                                       Time (seconds)
Module                                       User      System        Wall        Calls

--------------------------------------------------------------------------------------

**************************************************************************************

Host: adabbott

Timers On : Wed Dec 11 14:20:23 2019
Timers Off: Wed Dec 11 14:23:28 2019

Wall Time:      185.86 seconds

                                                       Time (seconds)
Module                                       User      System        Wall        Calls

--------------------------------------------------------------------------------------

**************************************************************************************

Host: adabbott

Timers On : Wed Dec 11 14:24:35 2019
Timers Off: Wed Dec 11 14:27:47 2019

Wall Time:      192.19 seconds

                                                       Time (seconds)
Module                                       User      System        Wall        Calls

--------------------------------------------------------------------------------------

**************************************************************************************

Host: adabbott

Timers On : Wed Dec 11 14:35:52 2019
Timers Off: Wed Dec 11 14:35:59 2019

Wall Time:        6.66 seconds

                                                       Time (seconds)
Module                                       User      System        Wall        Calls

--------------------------------------------------------------------------------------

**************************************************************************************

Host: adabbott

Timers On : Wed Dec 11 14:36:25 2019
Timers Off: Wed Dec 11 14:36:51 2019

Wall Time:       26.02 seconds

                                                       Time (seconds)
Module                                       User      System        Wall        Calls

--------------------------------------------------------------------------------------

**************************************************************************************

Host: adabbott

Timers On : Wed Dec 11 14:38:08 2019
Timers Off: Wed Dec 11 14:41:28 2019

Wall Time:      199.90 seconds

                                                       Time (seconds)
Module                                       User      System        Wall        Calls

--------------------------------------------------------------------------------------

**************************************************************************************

Host: adabbott

Timers On : Wed Dec 11 14:45:40 2019
Timers Off: Wed Dec 11 14:46:36 2019

Wall Time:       56.07 seconds

                                                       Time (seconds)
Module                                       User      System        Wall        Calls

--------------------------------------------------------------------------------------

**************************************************************************************

Host: adabbott

Timers On : Wed Dec 11 14:47:14 2019
Timers Off: Wed Dec 11 14:48:05 2019

Wall Time:       51.32 seconds

                                                       Time (seconds)
Module                                       User      System        Wall        Calls

--------------------------------------------------------------------------------------

**************************************************************************************

Host: adabbott

Timers On : Wed Dec 11 14:51:37 2019
Timers Off: Wed Dec 11 14:52:29 2019

Wall Time:       51.78 seconds

                                                       Time (seconds)
Module                                       User      System        Wall        Calls

--------------------------------------------------------------------------------------

**************************************************************************************

Host: adabbott

Timers On : Wed Dec 11 14:53:16 2019
Timers Off: Wed Dec 11 14:53:52 2019

Wall Time:       36.34 seconds

                                                       Time (seconds)
Module                                       User      System        Wall        Calls

--------------------------------------------------------------------------------------

**************************************************************************************

Host: adabbott

Timers On : Wed Dec 11 14:57:13 2019
Timers Off: Wed Dec 11 14:57:37 2019

Wall Time:       24.03 seconds

                                                       Time (seconds)
Module                                       User      System        Wall        Calls

--------------------------------------------------------------------------------------

**************************************************************************************

Host: adabbott

Timers On : Wed Dec 11 14:57:44 2019
Timers Off: Wed Dec 11 15:01:01 2019

Wall Time:      196.86 seconds

                                                       Time (seconds)
Module                                       User      System        Wall        Calls

--------------------------------------------------------------------------------------

**************************************************************************************

Host: adabbott

Timers On : Wed Dec 11 15:02:15 2019
Timers Off: Wed Dec 11 15:02:16 2019

Wall Time:        0.98 seconds

                                                       Time (seconds)
Module                                       User      System        Wall        Calls

--------------------------------------------------------------------------------------

**************************************************************************************

Host: adabbott

Timers On : Wed Dec 11 15:01:30 2019
Timers Off: Wed Dec 11 15:04:31 2019

Wall Time:      180.18 seconds

                                                       Time (seconds)
Module                                       User      System        Wall        Calls

--------------------------------------------------------------------------------------

**************************************************************************************

Host: adabbott

Timers On : Wed Dec 11 15:06:12 2019
Timers Off: Wed Dec 11 15:06:13 2019

Wall Time:        1.01 seconds

                                                       Time (seconds)
Module                                       User      System        Wall        Calls

--------------------------------------------------------------------------------------

**************************************************************************************

Host: adabbott

Timers On : Wed Dec 11 15:06:23 2019
Timers Off: Wed Dec 11 15:06:24 2019

Wall Time:        0.98 seconds

                                                       Time (seconds)
Module                                       User      System        Wall        Calls

--------------------------------------------------------------------------------------

**************************************************************************************

Host: adabbott

Timers On : Wed Dec 11 15:09:27 2019
Timers Off: Wed Dec 11 15:09:28 2019

Wall Time:        1.02 seconds

                                                       Time (seconds)
Module                                       User      System        Wall        Calls

--------------------------------------------------------------------------------------

**************************************************************************************

Host: adabbott

Timers On : Wed Dec 11 15:14:53 2019
Timers Off: Wed Dec 11 15:14:54 2019

Wall Time:        1.01 seconds

                                                       Time (seconds)
Module                                       User      System        Wall        Calls

--------------------------------------------------------------------------------------

**************************************************************************************

Host: adabbott

Timers On : Wed Dec 11 15:19:18 2019
Timers Off: Wed Dec 11 15:19:19 2019

Wall Time:        1.01 seconds

                                                       Time (seconds)
Module                                       User      System        Wall        Calls

--------------------------------------------------------------------------------------

**************************************************************************************

Host: adabbott

Timers On : Wed Dec 11 15:22:06 2019
Timers Off: Wed Dec 11 15:22:07 2019

Wall Time:        1.03 seconds

                                                       Time (seconds)
Module                                       User      System        Wall        Calls

--------------------------------------------------------------------------------------

**************************************************************************************

Host: adabbott

Timers On : Wed Dec 11 15:22:16 2019
Timers Off: Wed Dec 11 15:22:17 2019

Wall Time:        1.56 seconds

                                                       Time (seconds)
Module                                       User      System        Wall        Calls

--------------------------------------------------------------------------------------

**************************************************************************************

Host: adabbott

Timers On : Wed Dec 11 15:22:56 2019
Timers Off: Wed Dec 11 15:22:57 2019

Wall Time:        1.59 seconds

                                                       Time (seconds)
Module                                       User      System        Wall        Calls

--------------------------------------------------------------------------------------

**************************************************************************************

Host: adabbott

Timers On : Wed Dec 11 15:23:18 2019
Timers Off: Wed Dec 11 15:23:20 2019

Wall Time:        1.58 seconds

                                                       Time (seconds)
Module                                       User      System        Wall        Calls

--------------------------------------------------------------------------------------

**************************************************************************************

Host: adabbott

Timers On : Wed Dec 11 15:23:30 2019
Timers Off: Wed Dec 11 15:23:32 2019

Wall Time:        1.71 seconds

                                                       Time (seconds)
Module                                       User      System        Wall        Calls

--------------------------------------------------------------------------------------

**************************************************************************************

Host: adabbott

Timers On : Wed Dec 11 15:24:00 2019
Timers Off: Wed Dec 11 15:24:02 2019

Wall Time:        1.69 seconds

                                                       Time (seconds)
Module                                       User      System        Wall        Calls

--------------------------------------------------------------------------------------

**************************************************************************************

Host: adabbott

Timers On : Wed Dec 11 15:30:53 2019
Timers Off: Wed Dec 11 15:31:00 2019

Wall Time:        6.40 seconds

                                                       Time (seconds)
Module                                       User      System        Wall        Calls

--------------------------------------------------------------------------------------

**************************************************************************************

Host: adabbott

Timers On : Wed Dec 11 15:33:05 2019
Timers Off: Wed Dec 11 15:33:31 2019

Wall Time:       26.57 seconds

                                                       Time (seconds)
Module                                       User      System        Wall        Calls

--------------------------------------------------------------------------------------

**************************************************************************************

Host: adabbott

Timers On : Wed Dec 11 15:33:51 2019
Timers Off: Wed Dec 11 15:36:59 2019

Wall Time:      188.84 seconds

                                                       Time (seconds)
Module                                       User      System        Wall        Calls

--------------------------------------------------------------------------------------

**************************************************************************************

Host: adabbott

Timers On : Wed Dec 11 15:37:18 2019
Timers Off: Wed Dec 11 15:40:40 2019

Wall Time:      202.40 seconds

                                                       Time (seconds)
Module                                       User      System        Wall        Calls

--------------------------------------------------------------------------------------

**************************************************************************************

Host: adabbott

Timers On : Wed Dec 11 15:41:43 2019
Timers Off: Wed Dec 11 15:44:57 2019

Wall Time:      194.29 seconds

                                                       Time (seconds)
Module                                       User      System        Wall        Calls

--------------------------------------------------------------------------------------

**************************************************************************************

Host: adabbott

Timers On : Wed Dec 11 16:04:33 2019
Timers Off: Wed Dec 11 16:04:35 2019

Wall Time:        1.43 seconds

                                                       Time (seconds)
Module                                       User      System        Wall        Calls

--------------------------------------------------------------------------------------

**************************************************************************************

Host: adabbott

Timers On : Wed Dec 11 16:05:15 2019
Timers Off: Wed Dec 11 16:05:17 2019

Wall Time:        1.57 seconds

                                                       Time (seconds)
Module                                       User      System        Wall        Calls

--------------------------------------------------------------------------------------

**************************************************************************************

Host: adabbott

Timers On : Wed Dec 11 16:05:53 2019
Timers Off: Wed Dec 11 16:05:54 2019

Wall Time:        1.09 seconds

                                                       Time (seconds)
Module                                       User      System        Wall        Calls

--------------------------------------------------------------------------------------

**************************************************************************************

Host: adabbott

Timers On : Wed Dec 11 16:22:08 2019
Timers Off: Wed Dec 11 16:22:10 2019

Wall Time:        1.09 seconds

                                                       Time (seconds)
Module                                       User      System        Wall        Calls

--------------------------------------------------------------------------------------

**************************************************************************************

Host: adabbott

Timers On : Wed Dec 11 16:22:42 2019
Timers Off: Wed Dec 11 16:22:43 2019

Wall Time:        1.09 seconds

                                                       Time (seconds)
Module                                       User      System        Wall        Calls

--------------------------------------------------------------------------------------

**************************************************************************************

Host: adabbott

Timers On : Wed Dec 11 16:23:45 2019
Timers Off: Wed Dec 11 16:23:46 2019

Wall Time:        1.07 seconds

                                                       Time (seconds)
Module                                       User      System        Wall        Calls

--------------------------------------------------------------------------------------

**************************************************************************************

Host: adabbott

Timers On : Wed Dec 11 16:24:25 2019
Timers Off: Wed Dec 11 16:24:27 2019

Wall Time:        1.61 seconds

                                                       Time (seconds)
Module                                       User      System        Wall        Calls

--------------------------------------------------------------------------------------

**************************************************************************************

Host: adabbott

Timers On : Wed Dec 11 16:27:20 2019
Timers Off: Wed Dec 11 16:27:22 2019

Wall Time:        1.65 seconds

                                                       Time (seconds)
Module                                       User      System        Wall        Calls

--------------------------------------------------------------------------------------

**************************************************************************************

Host: adabbott

Timers On : Wed Dec 11 16:27:36 2019
Timers Off: Wed Dec 11 16:27:37 2019

Wall Time:        1.63 seconds

                                                       Time (seconds)
Module                                       User      System        Wall        Calls

--------------------------------------------------------------------------------------

**************************************************************************************

Host: adabbott

Timers On : Wed Dec 11 16:27:49 2019
Timers Off: Wed Dec 11 16:27:51 2019

Wall Time:        1.71 seconds

                                                       Time (seconds)
Module                                       User      System        Wall        Calls

--------------------------------------------------------------------------------------

**************************************************************************************

Host: adabbott

Timers On : Wed Dec 11 16:28:13 2019
Timers Off: Wed Dec 11 16:28:15 2019

Wall Time:        1.60 seconds

                                                       Time (seconds)
Module                                       User      System        Wall        Calls

--------------------------------------------------------------------------------------

**************************************************************************************

Host: adabbott

Timers On : Wed Dec 11 16:31:05 2019
Timers Off: Wed Dec 11 16:31:06 2019

Wall Time:        1.73 seconds

                                                       Time (seconds)
Module                                       User      System        Wall        Calls

--------------------------------------------------------------------------------------

**************************************************************************************

Host: adabbott

Timers On : Wed Dec 11 16:31:18 2019
Timers Off: Wed Dec 11 16:31:20 2019

Wall Time:        1.69 seconds

                                                       Time (seconds)
Module                                       User      System        Wall        Calls

--------------------------------------------------------------------------------------

**************************************************************************************

Host: adabbott

Timers On : Wed Dec 11 16:35:01 2019
Timers Off: Wed Dec 11 16:35:25 2019

Wall Time:       23.93 seconds

                                                       Time (seconds)
Module                                       User      System        Wall        Calls

--------------------------------------------------------------------------------------

**************************************************************************************

Host: adabbott

Timers On : Wed Dec 11 16:35:39 2019
Timers Off: Wed Dec 11 16:36:03 2019

Wall Time:       23.86 seconds

                                                       Time (seconds)
Module                                       User      System        Wall        Calls

--------------------------------------------------------------------------------------

**************************************************************************************

Host: adabbott

Timers On : Wed Dec 11 16:36:44 2019
Timers Off: Wed Dec 11 16:37:08 2019

Wall Time:       24.05 seconds

                                                       Time (seconds)
Module                                       User      System        Wall        Calls

--------------------------------------------------------------------------------------

**************************************************************************************

Host: adabbott

Timers On : Wed Dec 11 16:37:32 2019
Timers Off: Wed Dec 11 16:37:56 2019

Wall Time:       23.80 seconds

                                                       Time (seconds)
Module                                       User      System        Wall        Calls

--------------------------------------------------------------------------------------

**************************************************************************************

Host: adabbott

Timers On : Wed Dec 11 18:57:53 2019
Timers Off: Wed Dec 11 18:57:56 2019

Wall Time:        3.32 seconds

                                                       Time (seconds)
Module                                       User      System        Wall        Calls

--------------------------------------------------------------------------------------

**************************************************************************************

Host: adabbott

Timers On : Wed Dec 11 19:09:11 2019
Timers Off: Wed Dec 11 19:10:21 2019

Wall Time:       70.31 seconds

                                                       Time (seconds)
Module                                       User      System        Wall        Calls

--------------------------------------------------------------------------------------

**************************************************************************************

Host: adabbott

Timers On : Wed Dec 11 19:11:49 2019
Timers Off: Wed Dec 11 19:12:50 2019

Wall Time:       60.49 seconds

                                                       Time (seconds)
Module                                       User      System        Wall        Calls

--------------------------------------------------------------------------------------

**************************************************************************************

Host: adabbott

Timers On : Thu Dec 12 11:31:33 2019
Timers Off: Thu Dec 12 11:31:58 2019

Wall Time:       24.34 seconds

                                                       Time (seconds)
Module                                       User      System        Wall        Calls

--------------------------------------------------------------------------------------

**************************************************************************************

Host: adabbott

Timers On : Thu Dec 12 11:32:20 2019
Timers Off: Thu Dec 12 11:32:44 2019

Wall Time:       24.29 seconds

                                                       Time (seconds)
Module                                       User      System        Wall        Calls

--------------------------------------------------------------------------------------

**************************************************************************************

Host: adabbott

Timers On : Thu Dec 12 11:33:37 2019
Timers Off: Thu Dec 12 11:34:03 2019

Wall Time:       25.20 seconds

                                                       Time (seconds)
Module                                       User      System        Wall        Calls

--------------------------------------------------------------------------------------

**************************************************************************************

Host: adabbott

Timers On : Thu Dec 12 11:34:19 2019
Timers Off: Thu Dec 12 11:37:33 2019

Wall Time:      194.26 seconds

                                                       Time (seconds)
Module                                       User      System        Wall        Calls

--------------------------------------------------------------------------------------

**************************************************************************************

Host: adabbott

Timers On : Thu Dec 12 11:44:56 2019
Timers Off: Thu Dec 12 11:45:19 2019

Wall Time:       22.71 seconds

                                                       Time (seconds)
Module                                       User      System        Wall        Calls

--------------------------------------------------------------------------------------

**************************************************************************************

Host: adabbott

Timers On : Thu Dec 12 11:45:33 2019
Timers Off: Thu Dec 12 11:48:35 2019

Wall Time:      182.29 seconds

                                                       Time (seconds)
Module                                       User      System        Wall        Calls

--------------------------------------------------------------------------------------

**************************************************************************************

Host: adabbott

Timers On : Thu Dec 12 11:50:04 2019
Timers Off: Thu Dec 12 11:53:06 2019

Wall Time:      181.82 seconds

                                                       Time (seconds)
Module                                       User      System        Wall        Calls

--------------------------------------------------------------------------------------

**************************************************************************************

Host: adabbott

Timers On : Thu Dec 12 12:49:52 2019
Timers Off: Thu Dec 12 12:52:41 2019

Wall Time:      169.42 seconds

                                                       Time (seconds)
Module                                       User      System        Wall        Calls

--------------------------------------------------------------------------------------

**************************************************************************************

Host: adabbott

Timers On : Thu Dec 12 14:47:08 2019
Timers Off: Thu Dec 12 14:47:33 2019

Wall Time:       24.83 seconds

                                                       Time (seconds)
Module                                       User      System        Wall        Calls

--------------------------------------------------------------------------------------

**************************************************************************************

Host: adabbott

Timers On : Thu Dec 12 18:11:58 2019
Timers Off: Thu Dec 12 18:12:23 2019

Wall Time:       24.41 seconds

                                                       Time (seconds)
Module                                       User      System        Wall        Calls

--------------------------------------------------------------------------------------

**************************************************************************************

Host: adabbott

Timers On : Thu Dec 12 18:13:15 2019
Timers Off: Thu Dec 12 18:13:16 2019

Wall Time:        0.69 seconds

                                                       Time (seconds)
Module                                       User      System        Wall        Calls

--------------------------------------------------------------------------------------

**************************************************************************************

Host: adabbott

Timers On : Thu Dec 12 18:13:28 2019
Timers Off: Thu Dec 12 18:13:51 2019

Wall Time:       22.79 seconds

                                                       Time (seconds)
Module                                       User      System        Wall        Calls

--------------------------------------------------------------------------------------

**************************************************************************************

Host: adabbott

Timers On : Thu Dec 12 18:14:04 2019
Timers Off: Thu Dec 12 18:17:41 2019

Wall Time:      216.55 seconds

                                                       Time (seconds)
Module                                       User      System        Wall        Calls

--------------------------------------------------------------------------------------

**************************************************************************************

Host: adabbott

Timers On : Fri Dec 13 16:35:12 2019
Timers Off: Fri Dec 13 16:35:36 2019

Wall Time:       24.01 seconds

                                                       Time (seconds)
Module                                       User      System        Wall        Calls

--------------------------------------------------------------------------------------

**************************************************************************************

Host: adabbott

Timers On : Fri Dec 13 16:36:06 2019
Timers Off: Fri Dec 13 16:36:30 2019

Wall Time:       24.13 seconds

                                                       Time (seconds)
Module                                       User      System        Wall        Calls

--------------------------------------------------------------------------------------

**************************************************************************************

Host: adabbott

Timers On : Fri Dec 13 16:36:44 2019
Timers Off: Fri Dec 13 16:40:21 2019

Wall Time:      217.13 seconds

                                                       Time (seconds)
Module                                       User      System        Wall        Calls

--------------------------------------------------------------------------------------

**************************************************************************************

Host: adabbott

Timers On : Fri Dec 13 16:51:45 2019
Timers Off: Fri Dec 13 16:53:59 2019

Wall Time:      133.57 seconds

                                                       Time (seconds)
Module                                       User      System        Wall        Calls

--------------------------------------------------------------------------------------

**************************************************************************************

Host: adabbott

Timers On : Fri Dec 13 16:56:54 2019
Timers Off: Fri Dec 13 17:00:25 2019

Wall Time:      210.59 seconds

                                                       Time (seconds)
Module                                       User      System        Wall        Calls

--------------------------------------------------------------------------------------

**************************************************************************************

Host: adabbott

Timers On : Fri Dec 13 17:01:23 2019
Timers Off: Fri Dec 13 17:01:47 2019

Wall Time:       24.88 seconds

                                                       Time (seconds)
Module                                       User      System        Wall        Calls

--------------------------------------------------------------------------------------

**************************************************************************************

Host: adabbott

Timers On : Fri Dec 13 17:02:17 2019
Timers Off: Fri Dec 13 17:02:41 2019

Wall Time:       24.52 seconds

                                                       Time (seconds)
Module                                       User      System        Wall        Calls

--------------------------------------------------------------------------------------

**************************************************************************************

Host: adabbott

Timers On : Fri Dec 13 17:10:59 2019
Timers Off: Fri Dec 13 17:11:00 2019

Wall Time:        0.94 seconds

                                                       Time (seconds)
Module                                       User      System        Wall        Calls

--------------------------------------------------------------------------------------

**************************************************************************************

Host: adabbott

Timers On : Fri Dec 13 17:11:18 2019
Timers Off: Fri Dec 13 17:11:43 2019

Wall Time:       25.08 seconds

                                                       Time (seconds)
Module                                       User      System        Wall        Calls

--------------------------------------------------------------------------------------

**************************************************************************************

Host: adabbott

Timers On : Fri Dec 13 17:12:13 2019
Timers Off: Fri Dec 13 17:15:45 2019

Wall Time:      211.83 seconds

                                                       Time (seconds)
Module                                       User      System        Wall        Calls

--------------------------------------------------------------------------------------

**************************************************************************************

Host: adabbott

Timers On : Fri Dec 13 18:20:40 2019
Timers Off: Fri Dec 13 18:21:38 2019

Wall Time:       58.02 seconds

                                                       Time (seconds)
Module                                       User      System        Wall        Calls

--------------------------------------------------------------------------------------

**************************************************************************************

Host: adabbott

Timers On : Fri Dec 13 18:22:24 2019
Timers Off: Fri Dec 13 18:25:55 2019

Wall Time:      211.17 seconds

                                                       Time (seconds)
Module                                       User      System        Wall        Calls

--------------------------------------------------------------------------------------

**************************************************************************************

Host: adabbott

Timers On : Tue Dec 17 12:04:45 2019
Timers Off: Tue Dec 17 12:05:09 2019

Wall Time:       24.15 seconds

                                                       Time (seconds)
Module                                       User      System        Wall        Calls

--------------------------------------------------------------------------------------

**************************************************************************************

Host: adabbott

Timers On : Tue Dec 17 12:05:24 2019
Timers Off: Tue Dec 17 12:15:13 2019

Wall Time:      588.42 seconds

                                                       Time (seconds)
Module                                       User      System        Wall        Calls

--------------------------------------------------------------------------------------

**************************************************************************************

Host: adabbott

Timers On : Tue Dec 17 13:12:18 2019
Timers Off: Tue Dec 17 13:12:38 2019

Wall Time:       20.46 seconds

                                                       Time (seconds)
Module                                       User      System        Wall        Calls

--------------------------------------------------------------------------------------

**************************************************************************************

Host: adabbott

Timers On : Tue Dec 17 13:13:10 2019
Timers Off: Tue Dec 17 13:13:56 2019

Wall Time:       46.14 seconds

                                                       Time (seconds)
Module                                       User      System        Wall        Calls

--------------------------------------------------------------------------------------

**************************************************************************************

Host: adabbott

Timers On : Tue Dec 17 14:29:56 2019
Timers Off: Tue Dec 17 14:30:14 2019

Wall Time:       17.94 seconds

                                                       Time (seconds)
Module                                       User      System        Wall        Calls

--------------------------------------------------------------------------------------

**************************************************************************************

Host: adabbott

Timers On : Tue Dec 17 14:30:27 2019
Timers Off: Tue Dec 17 14:31:09 2019

Wall Time:       42.37 seconds

                                                       Time (seconds)
Module                                       User      System        Wall        Calls

--------------------------------------------------------------------------------------

**************************************************************************************

Host: adabbott

Timers On : Tue Dec 17 14:31:23 2019
Timers Off: Tue Dec 17 14:31:24 2019

Wall Time:        0.77 seconds

                                                       Time (seconds)
Module                                       User      System        Wall        Calls

--------------------------------------------------------------------------------------

**************************************************************************************

Host: adabbott

Timers On : Tue Dec 17 14:31:37 2019
Timers Off: Tue Dec 17 14:33:10 2019

Wall Time:       92.31 seconds

                                                       Time (seconds)
Module                                       User      System        Wall        Calls

--------------------------------------------------------------------------------------

**************************************************************************************

Host: adabbott

Timers On : Tue Dec 17 14:51:04 2019
Timers Off: Tue Dec 17 14:56:06 2019

Wall Time:      301.11 seconds

                                                       Time (seconds)
Module                                       User      System        Wall        Calls

--------------------------------------------------------------------------------------

**************************************************************************************

Host: adabbott

Timers On : Tue Dec 17 15:01:22 2019
Timers Off: Tue Dec 17 15:01:22 2019

Wall Time:        0.68 seconds

                                                       Time (seconds)
Module                                       User      System        Wall        Calls

--------------------------------------------------------------------------------------

**************************************************************************************

Host: adabbott

Timers On : Tue Dec 17 15:01:40 2019
Timers Off: Tue Dec 17 15:05:40 2019

Wall Time:      240.65 seconds

                                                       Time (seconds)
Module                                       User      System        Wall        Calls

--------------------------------------------------------------------------------------

**************************************************************************************

Host: adabbott

Timers On : Tue Dec 17 15:15:39 2019
Timers Off: Tue Dec 17 15:15:55 2019

Wall Time:       16.25 seconds

                                                       Time (seconds)
Module                                       User      System        Wall        Calls

--------------------------------------------------------------------------------------

**************************************************************************************

Host: adabbott

Timers On : Tue Dec 17 15:16:12 2019
Timers Off: Tue Dec 17 15:16:44 2019

Wall Time:       32.27 seconds

                                                       Time (seconds)
Module                                       User      System        Wall        Calls

--------------------------------------------------------------------------------------

**************************************************************************************

Host: adabbott

Timers On : Tue Dec 17 15:17:53 2019
Timers Off: Tue Dec 17 15:21:53 2019

Wall Time:      240.28 seconds

                                                       Time (seconds)
Module                                       User      System        Wall        Calls

--------------------------------------------------------------------------------------

**************************************************************************************

Host: adabbott

Timers On : Tue Dec 17 15:46:40 2019
Timers Off: Tue Dec 17 15:53:29 2019

Wall Time:      408.98 seconds

                                                       Time (seconds)
Module                                       User      System        Wall        Calls

--------------------------------------------------------------------------------------

**************************************************************************************

Host: adabbott

Timers On : Mon Feb  3 12:47:35 2020
Timers Off: Mon Feb  3 12:48:01 2020

Wall Time:       26.77 seconds

                                                       Time (seconds)
Module                                       User      System        Wall        Calls

--------------------------------------------------------------------------------------

**************************************************************************************
