
Host: adabbott

Timers On : Mon Nov 25 11:10:11 2019
Timers Off: Mon Nov 25 11:10:12 2019

Wall Time:        0.59 seconds

                                                       Time (seconds)
Module                                       User      System        Wall        Calls

--------------------------------------------------------------------------------------

**************************************************************************************

Host: adabbott

Timers On : Mon Nov 25 11:10:20 2019
Timers Off: Mon Nov 25 11:10:38 2019

Wall Time:       18.84 seconds

                                                       Time (seconds)
Module                                       User      System        Wall        Calls

--------------------------------------------------------------------------------------

**************************************************************************************

Host: adabbott

Timers On : Mon Nov 25 11:15:08 2019
Timers Off: Mon Nov 25 11:15:30 2019

Wall Time:       22.42 seconds

                                                       Time (seconds)
Module                                       User      System        Wall        Calls

--------------------------------------------------------------------------------------

**************************************************************************************
