
    -----------------------------------------------------------------------
          Psi4: An Open-Source Ab Initio Electronic Structure Package
                               Psi4 1.3.2 release

                         Git: Rev {HEAD} ecbda83 


    R. M. Parrish, L. A. Burns, D. G. A. Smith, A. C. Simmonett,
    A. E. DePrince III, E. G. Hohenstein, U. Bozkaya, A. Yu. Sokolov,
    R. Di Remigio, R. M. Richard, J. F. Gonthier, A. M. James,
    H. R. McAlexander, A. Kumar, M. Saitow, X. Wang, B. P. Pritchard,
    P. Verma, H. F. Schaefer III, K. Patkowski, R. A. King, E. F. Valeev,
    F. A. Evangelista, J. M. Turney, T. D. Crawford, and C. D. Sherrill,
    J. Chem. Theory Comput. 13(7) pp 3185--3197 (2017).
    (doi: 10.1021/acs.jctc.7b00174)


                         Additional Contributions by
    P. Kraus, H. Kruse, M. H. Lechner, M. C. Schieber, R. A. Shaw,
    A. Alenaizan, R. Galvelis, Z. L. Glick, S. Lehtola, and J. P. Misiewicz

    -----------------------------------------------------------------------


    Psi4 started on: Thursday, 07 November 2019 07:03PM

    Process ID: 21070
    Host:       adabbott
    PSIDATADIR: /home/adabbott/anaconda3/envs/psijax/share/psi4
    Memory:     500.0 MiB
    Threads:    1
    
  ==> Input File <==

--------------------------------------------------------------------------
import psi4
import numpy as np
np.set_printoptions(linewidth=599)

basis {
assign s_orb
[ s_orb ]
cartesian
****
H     0
D   1   1.00
      0.50000000000      1.0000000000
****
Li     0
P   1   1.00
      0.50000000000      1.0000000000
****
}

molecule h2o {
symmetry c1
units bohr
0 1
H  0.000000000000 0.000000000000 -0.849220457955
Li 0.000000000000 0.000000000000  0.849220457955
}

set scf_type pk
set mp2_type conv
set puream false
set e_convergence 10
set d_convergence 10
e, wfn = energy('hf', return_wfn=True)


mol = wfn.molecule()
bs = wfn.basisset()
basis = psi4.core.BasisSet.build(mol)
mints = psi4.core.MintsHelper(basis)
print(basis.shell(0).coef(0))
print(basis.shell(1).coef(0))

S = mints.ao_overlap()
print(np.asarray(S))
--------------------------------------------------------------------------

*** tstart() called on adabbott
*** at Thu Nov  7 19:03:38 2019

   => Loading Basis Set <=

    Name: ANONYMOUS92068DA8
    Role: ORBITAL
    Keyword: BASIS
    atoms 1 entry H          line     5 inputblock s_orb 
    atoms 2 entry LI         line     9 inputblock s_orb 


         ---------------------------------------------------------
                                   SCF
               by Justin Turney, Rob Parrish, Andy Simmonett
                          and Daniel G. A. Smith
                              RHF Reference
                        1 Threads,    500 MiB Core
         ---------------------------------------------------------

  ==> Geometry <==

    Molecular point group: c1
    Full point group: C_inf_v

    Geometry (in Bohr), charge = 0, multiplicity = 1:

       Center              X                  Y                   Z               Mass       
    ------------   -----------------  -----------------  -----------------  -----------------
         H            0.000000000000     0.000000000000    -1.485109925913     1.007825032230
         LI           0.000000000000     0.000000000000     0.213330989997     7.016003436600

  Running in c1 symmetry.

  Rotational constants: A = ************  B =     23.68100  C =     23.68100 [cm^-1]
  Rotational constants: A = ************  B = 709938.53229  C = 709938.53229 [MHz]
  Nuclear repulsion =    1.766325794378690

  Charge       = 0
  Multiplicity = 1
  Electrons    = 4
  Nalpha       = 2
  Nbeta        = 2

  ==> Algorithm <==

  SCF Algorithm Type is PK.
  DIIS enabled.
  MOM disabled.
  Fractional occupation disabled.
  Guess Type is SAD.
  Energy threshold   = 1.00e-10
  Density threshold  = 1.00e-10
  Integral threshold = 0.00e+00

  ==> Primary Basis <==

  Basis Set: ANONYMOUS92068DA8
    Blend: S_ORB
    Number of shells: 2
    Number of basis function: 9
    Number of Cartesian functions: 9
    Spherical Harmonics?: false
    Max angular momentum: 2

  ==> Pre-Iterations <==

   -------------------------------------------------------
    Irrep   Nso     Nmo     Nalpha   Nbeta   Ndocc  Nsocc
   -------------------------------------------------------
     A          9       9       0       0       0       0
   -------------------------------------------------------
    Total       9       9       2       2       2       0
   -------------------------------------------------------

  ==> Integral Setup <==

  Using in-core PK algorithm.
   Calculation information:
      Number of atoms:                   2
      Number of AO shells:               2
      Number of primitives:              2
      Number of atomic orbitals:         9
      Number of basis functions:         9

      Integral cutoff                 1.00e-12
      Number of threads:                 1

  Performing in-core PK
  Using 2070 doubles for integral storage.
  We computed 6 shell quartets total.
  Whereas there are 6 unique shell quartets.

  ==> DiskJK: Disk-Based J/K Matrices <==

    J tasked:                  Yes
    K tasked:                  Yes
    wK tasked:                  No
    Memory [MiB]:              375
    Schwarz Cutoff:          1E-12

    OpenMP threads:              1

  Minimum eigenvalue in the overlap matrix is 1.9258373573E-01.
  Using Symmetric Orthogonalization.

  SCF Guess: Superposition of Atomic Densities via on-the-fly atomic UHF.

  ==> Iterations <==

                        Total Energy        Delta E     RMS |[F,P]|

   @RHF iter SAD:    -1.12252430900994   -1.12252e+00   0.00000e+00 
   @RHF iter   1:    -2.05627742406586   -9.33753e-01   1.08877e-02 DIIS
   @RHF iter   2:    -2.06344770458911   -7.17028e-03   2.23787e-03 DIIS
   @RHF iter   3:    -2.06383709631384   -3.89392e-04   2.81989e-04 DIIS
   @RHF iter   4:    -2.06384975276959   -1.26565e-05   9.88637e-06 DIIS
   @RHF iter   5:    -2.06384976103348   -8.26389e-09   6.45418e-07 DIIS
   @RHF iter   6:    -2.06384976107266   -3.91749e-11   1.13667e-09 DIIS
   @RHF iter   7:    -2.06384976107265    8.88178e-16   1.83945e-10 DIIS
   @RHF iter   8:    -2.06384976107265    8.88178e-16   9.84258e-14 DIIS
  Energy and wave function converged.


  ==> Post-Iterations <==

    Orbital Energies [Eh]
    ---------------------

    Doubly Occupied:                                                      

       1A     -0.466552     2A      0.040900  

    Virtual:                                                              

       3A      0.384956     4A      0.491196     5A      1.258954  
       6A      1.582086     7A      1.583073     8A      1.759315  
       9A      1.777030  

    Final Occupation by Irrep:
              A 
    DOCC [     2 ]

  @RHF Final Energy:    -2.06384976107265

   => Energetics <=

    Nuclear Repulsion Energy =              1.7663257943786896
    One-Electron Energy =                  -6.8090473947755434
    Two-Electron Energy =                   2.9788718393242002
    Total Energy =                         -2.0638497610726541

Computation Completed


Properties will be evaluated at   0.000000,   0.000000,   0.000000 [a0]

Properties computed using the SCF density matrix

  Nuclear Dipole Moment: [e a0]
     X:     0.0000      Y:     0.0000      Z:    -0.8451

  Electronic Dipole Moment: [e a0]
     X:     0.0000      Y:    -0.0000      Z:     2.4811

  Dipole Moment: [e a0]
     X:     0.0000      Y:    -0.0000      Z:     1.6360     Total:     1.6360

  Dipole Moment: [D]
     X:     0.0000      Y:    -0.0000      Z:     4.1582     Total:     4.1582


*** tstop() called on adabbott at Thu Nov  7 19:03:38 2019
Module time:
	user time   =       0.28 seconds =       0.00 minutes
	system time =       0.00 seconds =       0.00 minutes
	total time  =          0 seconds =       0.00 minutes
Total time:
	user time   =       0.28 seconds =       0.00 minutes
	system time =       0.00 seconds =       0.00 minutes
	total time  =          0 seconds =       0.00 minutes
   => Loading Basis Set <=

    Name: ANONYMOUS92068DA8
    Role: ORBITAL
    Keyword: None
    atoms 1 entry H          line     5 inputblock s_orb 
    atoms 2 entry LI         line     9 inputblock s_orb 


    Psi4 stopped on: Thursday, 07 November 2019 07:03PM
    Psi4 wall time for execution: 0:00:00.34

*** Psi4 exiting successfully. Buy a developer a beer!
