
Host: adabbott

Timers On : Thu Dec 12 18:44:58 2019
Timers Off: Thu Dec 12 18:46:30 2019

Wall Time:       91.14 seconds

                                                       Time (seconds)
Module                                       User      System        Wall        Calls

--------------------------------------------------------------------------------------

**************************************************************************************

Host: adabbott

Timers On : Thu Dec 12 18:50:11 2019
Timers Off: Thu Dec 12 18:50:11 2019

Wall Time:        0.69 seconds

                                                       Time (seconds)
Module                                       User      System        Wall        Calls

--------------------------------------------------------------------------------------

**************************************************************************************

Host: adabbott

Timers On : Thu Dec 12 18:50:27 2019
Timers Off: Thu Dec 12 18:50:52 2019

Wall Time:       24.25 seconds

                                                       Time (seconds)
Module                                       User      System        Wall        Calls

--------------------------------------------------------------------------------------

**************************************************************************************

Host: adabbott

Timers On : Thu Dec 12 18:51:28 2019
Timers Off: Thu Dec 12 18:52:04 2019

Wall Time:       36.28 seconds

                                                       Time (seconds)
Module                                       User      System        Wall        Calls

--------------------------------------------------------------------------------------

**************************************************************************************

Host: adabbott

Timers On : Thu Dec 12 18:52:29 2019
Timers Off: Thu Dec 12 18:52:49 2019

Wall Time:       20.66 seconds

                                                       Time (seconds)
Module                                       User      System        Wall        Calls

--------------------------------------------------------------------------------------

**************************************************************************************

Host: adabbott

Timers On : Thu Dec 12 18:53:08 2019
Timers Off: Thu Dec 12 18:53:28 2019

Wall Time:       19.52 seconds

                                                       Time (seconds)
Module                                       User      System        Wall        Calls

--------------------------------------------------------------------------------------

**************************************************************************************

Host: adabbott

Timers On : Thu Dec 12 18:53:40 2019
Timers Off: Thu Dec 12 18:53:59 2019

Wall Time:       18.83 seconds

                                                       Time (seconds)
Module                                       User      System        Wall        Calls

--------------------------------------------------------------------------------------

**************************************************************************************
