
Host: adabbott

Timers On : Wed Nov 20 13:35:34 2019
Timers Off: Wed Nov 20 13:35:35 2019

Wall Time:        0.58 seconds

                                                       Time (seconds)
Module                                       User      System        Wall        Calls

--------------------------------------------------------------------------------------

**************************************************************************************

Host: adabbott

Timers On : Wed Nov 20 13:35:40 2019
Timers Off: Wed Nov 20 13:35:41 2019

Wall Time:        0.58 seconds

                                                       Time (seconds)
Module                                       User      System        Wall        Calls

--------------------------------------------------------------------------------------

**************************************************************************************

Host: adabbott

Timers On : Wed Nov 20 13:35:50 2019
Timers Off: Wed Nov 20 13:35:52 2019

Wall Time:        1.77 seconds

                                                       Time (seconds)
Module                                       User      System        Wall        Calls

--------------------------------------------------------------------------------------

**************************************************************************************

Host: adabbott

Timers On : Wed Nov 20 13:36:16 2019
Timers Off: Wed Nov 20 13:36:17 2019

Wall Time:        1.60 seconds

                                                       Time (seconds)
Module                                       User      System        Wall        Calls

--------------------------------------------------------------------------------------

**************************************************************************************

Host: adabbott

Timers On : Wed Nov 20 13:37:07 2019
Timers Off: Wed Nov 20 13:37:09 2019

Wall Time:        1.59 seconds

                                                       Time (seconds)
Module                                       User      System        Wall        Calls

--------------------------------------------------------------------------------------

**************************************************************************************

Host: adabbott

Timers On : Wed Nov 20 13:38:02 2019
Timers Off: Wed Nov 20 13:38:04 2019

Wall Time:        1.59 seconds

                                                       Time (seconds)
Module                                       User      System        Wall        Calls

--------------------------------------------------------------------------------------

**************************************************************************************

Host: adabbott

Timers On : Wed Nov 20 13:38:28 2019
Timers Off: Wed Nov 20 13:38:30 2019

Wall Time:        1.09 seconds

                                                       Time (seconds)
Module                                       User      System        Wall        Calls

--------------------------------------------------------------------------------------

**************************************************************************************

Host: adabbott

Timers On : Wed Nov 20 13:42:39 2019
Timers Off: Wed Nov 20 13:42:40 2019

Wall Time:        1.32 seconds

                                                       Time (seconds)
Module                                       User      System        Wall        Calls

--------------------------------------------------------------------------------------

**************************************************************************************

Host: adabbott

Timers On : Wed Nov 20 13:44:50 2019
Timers Off: Wed Nov 20 13:44:52 2019

Wall Time:        1.35 seconds

                                                       Time (seconds)
Module                                       User      System        Wall        Calls

--------------------------------------------------------------------------------------

**************************************************************************************

Host: adabbott

Timers On : Wed Nov 20 13:45:17 2019
Timers Off: Wed Nov 20 13:45:18 2019

Wall Time:        1.34 seconds

                                                       Time (seconds)
Module                                       User      System        Wall        Calls

--------------------------------------------------------------------------------------

**************************************************************************************

Host: adabbott

Timers On : Wed Nov 20 13:47:14 2019
Timers Off: Wed Nov 20 13:47:15 2019

Wall Time:        1.26 seconds

                                                       Time (seconds)
Module                                       User      System        Wall        Calls

--------------------------------------------------------------------------------------

**************************************************************************************

Host: adabbott

Timers On : Wed Nov 20 13:47:43 2019
Timers Off: Wed Nov 20 13:47:45 2019

Wall Time:        1.40 seconds

                                                       Time (seconds)
Module                                       User      System        Wall        Calls

--------------------------------------------------------------------------------------

**************************************************************************************

Host: adabbott

Timers On : Wed Nov 20 13:57:00 2019
Timers Off: Wed Nov 20 13:57:02 2019

Wall Time:        1.91 seconds

                                                       Time (seconds)
Module                                       User      System        Wall        Calls

--------------------------------------------------------------------------------------

**************************************************************************************

Host: adabbott

Timers On : Wed Nov 20 13:57:20 2019
Timers Off: Wed Nov 20 13:57:22 2019

Wall Time:        2.20 seconds

                                                       Time (seconds)
Module                                       User      System        Wall        Calls

--------------------------------------------------------------------------------------

**************************************************************************************

Host: adabbott

Timers On : Wed Nov 20 13:57:56 2019
Timers Off: Wed Nov 20 13:57:59 2019

Wall Time:        2.13 seconds

                                                       Time (seconds)
Module                                       User      System        Wall        Calls

--------------------------------------------------------------------------------------

**************************************************************************************

Host: adabbott

Timers On : Wed Nov 20 13:58:15 2019
Timers Off: Wed Nov 20 13:58:17 2019

Wall Time:        1.84 seconds

                                                       Time (seconds)
Module                                       User      System        Wall        Calls

--------------------------------------------------------------------------------------

**************************************************************************************

Host: adabbott

Timers On : Wed Nov 20 14:00:22 2019
Timers Off: Wed Nov 20 14:00:24 2019

Wall Time:        2.14 seconds

                                                       Time (seconds)
Module                                       User      System        Wall        Calls

--------------------------------------------------------------------------------------

**************************************************************************************

Host: adabbott

Timers On : Wed Nov 20 14:01:27 2019
Timers Off: Wed Nov 20 14:01:35 2019

Wall Time:        8.43 seconds

                                                       Time (seconds)
Module                                       User      System        Wall        Calls

--------------------------------------------------------------------------------------

**************************************************************************************

Host: adabbott

Timers On : Wed Nov 20 14:01:57 2019
Timers Off: Wed Nov 20 14:02:05 2019

Wall Time:        8.27 seconds

                                                       Time (seconds)
Module                                       User      System        Wall        Calls

--------------------------------------------------------------------------------------

**************************************************************************************

Host: adabbott

Timers On : Wed Nov 20 14:02:33 2019
Timers Off: Wed Nov 20 14:02:36 2019

Wall Time:        3.13 seconds

                                                       Time (seconds)
Module                                       User      System        Wall        Calls

--------------------------------------------------------------------------------------

**************************************************************************************

Host: adabbott

Timers On : Wed Nov 20 14:03:09 2019
Timers Off: Wed Nov 20 14:03:12 2019

Wall Time:        3.56 seconds

                                                       Time (seconds)
Module                                       User      System        Wall        Calls

--------------------------------------------------------------------------------------

**************************************************************************************

Host: adabbott

Timers On : Wed Nov 20 14:04:15 2019
Timers Off: Wed Nov 20 14:04:19 2019

Wall Time:        4.15 seconds

                                                       Time (seconds)
Module                                       User      System        Wall        Calls

--------------------------------------------------------------------------------------

**************************************************************************************

Host: adabbott

Timers On : Wed Nov 20 14:04:28 2019
Timers Off: Wed Nov 20 14:04:33 2019

Wall Time:        4.18 seconds

                                                       Time (seconds)
Module                                       User      System        Wall        Calls

--------------------------------------------------------------------------------------

**************************************************************************************

Host: adabbott

Timers On : Wed Nov 20 14:04:51 2019
Timers Off: Wed Nov 20 14:05:05 2019

Wall Time:       14.73 seconds

                                                       Time (seconds)
Module                                       User      System        Wall        Calls

--------------------------------------------------------------------------------------

**************************************************************************************

Host: adabbott

Timers On : Wed Nov 20 14:05:54 2019
Timers Off: Wed Nov 20 14:06:09 2019

Wall Time:       14.77 seconds

                                                       Time (seconds)
Module                                       User      System        Wall        Calls

--------------------------------------------------------------------------------------

**************************************************************************************

Host: adabbott

Timers On : Wed Nov 20 14:06:50 2019
Timers Off: Wed Nov 20 14:06:56 2019

Wall Time:        6.04 seconds

                                                       Time (seconds)
Module                                       User      System        Wall        Calls

--------------------------------------------------------------------------------------

**************************************************************************************

Host: adabbott

Timers On : Wed Nov 20 14:07:04 2019
Timers Off: Wed Nov 20 14:07:09 2019

Wall Time:        4.65 seconds

                                                       Time (seconds)
Module                                       User      System        Wall        Calls

--------------------------------------------------------------------------------------

**************************************************************************************

Host: adabbott

Timers On : Wed Nov 20 14:11:26 2019
Timers Off: Wed Nov 20 14:11:31 2019

Wall Time:        5.30 seconds

                                                       Time (seconds)
Module                                       User      System        Wall        Calls

--------------------------------------------------------------------------------------

**************************************************************************************

Host: adabbott

Timers On : Wed Nov 20 14:12:02 2019
Timers Off: Wed Nov 20 14:12:07 2019

Wall Time:        4.33 seconds

                                                       Time (seconds)
Module                                       User      System        Wall        Calls

--------------------------------------------------------------------------------------

**************************************************************************************

Host: adabbott

Timers On : Wed Nov 20 14:13:22 2019
Timers Off: Wed Nov 20 14:13:27 2019

Wall Time:        4.47 seconds

                                                       Time (seconds)
Module                                       User      System        Wall        Calls

--------------------------------------------------------------------------------------

**************************************************************************************

Host: adabbott

Timers On : Wed Nov 20 14:14:38 2019
Timers Off: Wed Nov 20 14:14:44 2019

Wall Time:        5.54 seconds

                                                       Time (seconds)
Module                                       User      System        Wall        Calls

--------------------------------------------------------------------------------------

**************************************************************************************

Host: adabbott

Timers On : Wed Nov 20 14:14:55 2019
Timers Off: Wed Nov 20 14:15:10 2019

Wall Time:       15.09 seconds

                                                       Time (seconds)
Module                                       User      System        Wall        Calls

--------------------------------------------------------------------------------------

**************************************************************************************

Host: adabbott

Timers On : Wed Nov 20 14:15:28 2019
Timers Off: Wed Nov 20 14:15:29 2019

Wall Time:        1.42 seconds

                                                       Time (seconds)
Module                                       User      System        Wall        Calls

--------------------------------------------------------------------------------------

**************************************************************************************

Host: adabbott

Timers On : Wed Nov 20 14:16:28 2019
Timers Off: Wed Nov 20 14:16:29 2019

Wall Time:        0.92 seconds

                                                       Time (seconds)
Module                                       User      System        Wall        Calls

--------------------------------------------------------------------------------------

**************************************************************************************

Host: adabbott

Timers On : Wed Nov 20 14:17:29 2019
Timers Off: Wed Nov 20 14:17:30 2019

Wall Time:        1.23 seconds

                                                       Time (seconds)
Module                                       User      System        Wall        Calls

--------------------------------------------------------------------------------------

**************************************************************************************

Host: adabbott

Timers On : Wed Nov 20 14:17:46 2019
Timers Off: Wed Nov 20 14:17:54 2019

Wall Time:        8.01 seconds

                                                       Time (seconds)
Module                                       User      System        Wall        Calls

--------------------------------------------------------------------------------------

**************************************************************************************

Host: adabbott

Timers On : Wed Nov 20 14:18:11 2019
Timers Off: Wed Nov 20 14:19:18 2019

Wall Time:       67.71 seconds

                                                       Time (seconds)
Module                                       User      System        Wall        Calls

--------------------------------------------------------------------------------------

**************************************************************************************

Host: adabbott

Timers On : Wed Nov 20 14:20:06 2019
Timers Off: Wed Nov 20 14:24:22 2019

Wall Time:      255.72 seconds

                                                       Time (seconds)
Module                                       User      System        Wall        Calls

--------------------------------------------------------------------------------------

**************************************************************************************

Host: adabbott

Timers On : Wed Nov 20 14:24:59 2019
Timers Off: Wed Nov 20 14:26:06 2019

Wall Time:       66.91 seconds

                                                       Time (seconds)
Module                                       User      System        Wall        Calls

--------------------------------------------------------------------------------------

**************************************************************************************

Host: adabbott

Timers On : Wed Nov 20 14:26:43 2019
Timers Off: Wed Nov 20 14:28:06 2019

Wall Time:       83.38 seconds

                                                       Time (seconds)
Module                                       User      System        Wall        Calls

--------------------------------------------------------------------------------------

**************************************************************************************

Host: adabbott

Timers On : Wed Nov 20 14:29:50 2019
Timers Off: Wed Nov 20 14:30:42 2019

Wall Time:       52.35 seconds

                                                       Time (seconds)
Module                                       User      System        Wall        Calls

--------------------------------------------------------------------------------------

**************************************************************************************

Host: adabbott

Timers On : Wed Nov 20 14:31:34 2019
Timers Off: Wed Nov 20 14:32:26 2019

Wall Time:       51.97 seconds

                                                       Time (seconds)
Module                                       User      System        Wall        Calls

--------------------------------------------------------------------------------------

**************************************************************************************

Host: adabbott

Timers On : Wed Nov 20 14:34:27 2019
Timers Off: Wed Nov 20 14:34:36 2019

Wall Time:        9.52 seconds

                                                       Time (seconds)
Module                                       User      System        Wall        Calls

--------------------------------------------------------------------------------------

**************************************************************************************

Host: adabbott

Timers On : Wed Nov 20 14:34:45 2019
Timers Off: Wed Nov 20 14:34:58 2019

Wall Time:       13.21 seconds

                                                       Time (seconds)
Module                                       User      System        Wall        Calls

--------------------------------------------------------------------------------------

**************************************************************************************

Host: adabbott

Timers On : Wed Nov 20 14:36:55 2019
Timers Off: Wed Nov 20 14:37:48 2019

Wall Time:       53.01 seconds

                                                       Time (seconds)
Module                                       User      System        Wall        Calls

--------------------------------------------------------------------------------------

**************************************************************************************

Host: adabbott

Timers On : Wed Nov 20 14:41:46 2019
Timers Off: Wed Nov 20 14:42:46 2019

Wall Time:       59.69 seconds

                                                       Time (seconds)
Module                                       User      System        Wall        Calls

--------------------------------------------------------------------------------------

**************************************************************************************

Host: adabbott

Timers On : Wed Nov 20 14:43:35 2019
Timers Off: Wed Nov 20 14:44:27 2019

Wall Time:       52.43 seconds

                                                       Time (seconds)
Module                                       User      System        Wall        Calls

--------------------------------------------------------------------------------------

**************************************************************************************

Host: adabbott

Timers On : Wed Nov 20 14:45:04 2019
Timers Off: Wed Nov 20 14:45:58 2019

Wall Time:       53.58 seconds

                                                       Time (seconds)
Module                                       User      System        Wall        Calls

--------------------------------------------------------------------------------------

**************************************************************************************

Host: adabbott

Timers On : Wed Nov 20 14:50:02 2019
Timers Off: Wed Nov 20 14:50:54 2019

Wall Time:       52.35 seconds

                                                       Time (seconds)
Module                                       User      System        Wall        Calls

--------------------------------------------------------------------------------------

**************************************************************************************

Host: adabbott

Timers On : Wed Nov 20 15:08:05 2019
Timers Off: Wed Nov 20 15:10:29 2019

Wall Time:      143.84 seconds

                                                       Time (seconds)
Module                                       User      System        Wall        Calls

--------------------------------------------------------------------------------------

**************************************************************************************

Host: adabbott

Timers On : Wed Nov 20 15:12:43 2019
Timers Off: Wed Nov 20 15:13:36 2019

Wall Time:       52.55 seconds

                                                       Time (seconds)
Module                                       User      System        Wall        Calls

--------------------------------------------------------------------------------------

**************************************************************************************

Host: adabbott

Timers On : Wed Nov 20 15:15:32 2019
Timers Off: Wed Nov 20 15:16:27 2019

Wall Time:       55.48 seconds

                                                       Time (seconds)
Module                                       User      System        Wall        Calls

--------------------------------------------------------------------------------------

**************************************************************************************

Host: adabbott

Timers On : Wed Nov 20 15:17:52 2019
Timers Off: Wed Nov 20 15:18:45 2019

Wall Time:       53.68 seconds

                                                       Time (seconds)
Module                                       User      System        Wall        Calls

--------------------------------------------------------------------------------------

**************************************************************************************

Host: adabbott

Timers On : Wed Nov 20 15:19:41 2019
Timers Off: Wed Nov 20 15:20:34 2019

Wall Time:       53.01 seconds

                                                       Time (seconds)
Module                                       User      System        Wall        Calls

--------------------------------------------------------------------------------------

**************************************************************************************

Host: adabbott

Timers On : Wed Nov 20 15:25:13 2019
Timers Off: Wed Nov 20 15:26:56 2019

Wall Time:      102.93 seconds

                                                       Time (seconds)
Module                                       User      System        Wall        Calls

--------------------------------------------------------------------------------------

**************************************************************************************

Host: adabbott

Timers On : Wed Nov 20 15:33:26 2019
Timers Off: Wed Nov 20 15:33:27 2019

Wall Time:        1.07 seconds

                                                       Time (seconds)
Module                                       User      System        Wall        Calls

--------------------------------------------------------------------------------------

**************************************************************************************

Host: adabbott

Timers On : Wed Nov 20 15:35:59 2019
Timers Off: Wed Nov 20 15:37:42 2019

Wall Time:      102.19 seconds

                                                       Time (seconds)
Module                                       User      System        Wall        Calls

--------------------------------------------------------------------------------------

**************************************************************************************

Host: adabbott

Timers On : Wed Nov 20 15:44:38 2019
Timers Off: Wed Nov 20 15:44:50 2019

Wall Time:       11.49 seconds

                                                       Time (seconds)
Module                                       User      System        Wall        Calls

--------------------------------------------------------------------------------------

**************************************************************************************

Host: adabbott

Timers On : Wed Nov 20 15:45:38 2019
Timers Off: Wed Nov 20 15:47:34 2019

Wall Time:      116.07 seconds

                                                       Time (seconds)
Module                                       User      System        Wall        Calls

--------------------------------------------------------------------------------------

**************************************************************************************

Host: adabbott

Timers On : Wed Nov 20 15:50:41 2019
Timers Off: Wed Nov 20 15:52:24 2019

Wall Time:      102.55 seconds

                                                       Time (seconds)
Module                                       User      System        Wall        Calls

--------------------------------------------------------------------------------------

**************************************************************************************

Host: adabbott

Timers On : Wed Nov 20 15:53:44 2019
Timers Off: Wed Nov 20 15:53:45 2019

Wall Time:        0.69 seconds

                                                       Time (seconds)
Module                                       User      System        Wall        Calls

--------------------------------------------------------------------------------------

**************************************************************************************

Host: adabbott

Timers On : Wed Nov 20 15:53:52 2019
Timers Off: Wed Nov 20 15:53:54 2019

Wall Time:        1.78 seconds

                                                       Time (seconds)
Module                                       User      System        Wall        Calls

--------------------------------------------------------------------------------------

**************************************************************************************

Host: adabbott

Timers On : Wed Nov 20 15:54:04 2019
Timers Off: Wed Nov 20 15:54:09 2019

Wall Time:        5.03 seconds

                                                       Time (seconds)
Module                                       User      System        Wall        Calls

--------------------------------------------------------------------------------------

**************************************************************************************

Host: adabbott

Timers On : Wed Nov 20 15:54:23 2019
Timers Off: Wed Nov 20 15:57:17 2019

Wall Time:      174.10 seconds

                                                       Time (seconds)
Module                                       User      System        Wall        Calls

--------------------------------------------------------------------------------------

**************************************************************************************

Host: adabbott

Timers On : Wed Nov 20 15:57:51 2019
Timers Off: Wed Nov 20 16:00:30 2019

Wall Time:      158.43 seconds

                                                       Time (seconds)
Module                                       User      System        Wall        Calls

--------------------------------------------------------------------------------------

**************************************************************************************

Host: adabbott

Timers On : Wed Nov 20 16:37:57 2019
Timers Off: Wed Nov 20 16:41:10 2019

Wall Time:      192.25 seconds

                                                       Time (seconds)
Module                                       User      System        Wall        Calls

--------------------------------------------------------------------------------------

**************************************************************************************

Host: adabbott

Timers On : Wed Nov 20 16:52:10 2019
Timers Off: Wed Nov 20 16:52:11 2019

Wall Time:        0.63 seconds

                                                       Time (seconds)
Module                                       User      System        Wall        Calls

--------------------------------------------------------------------------------------

**************************************************************************************

Host: adabbott

Timers On : Wed Nov 20 16:52:45 2019
Timers Off: Wed Nov 20 16:52:46 2019

Wall Time:        0.64 seconds

                                                       Time (seconds)
Module                                       User      System        Wall        Calls

--------------------------------------------------------------------------------------

**************************************************************************************

Host: adabbott

Timers On : Wed Nov 20 16:52:52 2019
Timers Off: Wed Nov 20 16:55:41 2019

Wall Time:      169.00 seconds

                                                       Time (seconds)
Module                                       User      System        Wall        Calls

--------------------------------------------------------------------------------------

**************************************************************************************

Host: adabbott

Timers On : Wed Nov 20 17:02:29 2019
Timers Off: Wed Nov 20 17:05:10 2019

Wall Time:      160.99 seconds

                                                       Time (seconds)
Module                                       User      System        Wall        Calls

--------------------------------------------------------------------------------------

**************************************************************************************

Host: adabbott

Timers On : Wed Nov 20 17:05:52 2019
Timers Off: Wed Nov 20 17:08:35 2019

Wall Time:      163.13 seconds

                                                       Time (seconds)
Module                                       User      System        Wall        Calls

--------------------------------------------------------------------------------------

**************************************************************************************

Host: adabbott

Timers On : Wed Nov 20 17:09:20 2019
Timers Off: Wed Nov 20 17:12:05 2019

Wall Time:      164.17 seconds

                                                       Time (seconds)
Module                                       User      System        Wall        Calls

--------------------------------------------------------------------------------------

**************************************************************************************

Host: adabbott

Timers On : Wed Nov 20 17:16:50 2019
Timers Off: Wed Nov 20 17:19:12 2019

Wall Time:      141.65 seconds

                                                       Time (seconds)
Module                                       User      System        Wall        Calls

--------------------------------------------------------------------------------------

**************************************************************************************

Host: adabbott

Timers On : Wed Nov 20 17:21:08 2019
Timers Off: Wed Nov 20 17:21:09 2019

Wall Time:        0.88 seconds

                                                       Time (seconds)
Module                                       User      System        Wall        Calls

--------------------------------------------------------------------------------------

**************************************************************************************

Host: adabbott

Timers On : Wed Nov 20 17:22:50 2019
Timers Off: Wed Nov 20 17:23:52 2019

Wall Time:       62.13 seconds

                                                       Time (seconds)
Module                                       User      System        Wall        Calls

--------------------------------------------------------------------------------------

**************************************************************************************

Host: adabbott

Timers On : Wed Nov 20 17:24:48 2019
Timers Off: Wed Nov 20 17:24:52 2019

Wall Time:        3.94 seconds

                                                       Time (seconds)
Module                                       User      System        Wall        Calls

--------------------------------------------------------------------------------------

**************************************************************************************

Host: adabbott

Timers On : Wed Nov 20 17:25:42 2019
Timers Off: Wed Nov 20 17:25:46 2019

Wall Time:        3.92 seconds

                                                       Time (seconds)
Module                                       User      System        Wall        Calls

--------------------------------------------------------------------------------------

**************************************************************************************

Host: adabbott

Timers On : Wed Nov 20 17:26:25 2019
Timers Off: Wed Nov 20 17:26:29 2019

Wall Time:        3.91 seconds

                                                       Time (seconds)
Module                                       User      System        Wall        Calls

--------------------------------------------------------------------------------------

**************************************************************************************

Host: adabbott

Timers On : Wed Nov 20 17:27:08 2019
Timers Off: Wed Nov 20 17:27:12 2019

Wall Time:        3.99 seconds

                                                       Time (seconds)
Module                                       User      System        Wall        Calls

--------------------------------------------------------------------------------------

**************************************************************************************

Host: adabbott

Timers On : Wed Nov 20 17:27:49 2019
Timers Off: Wed Nov 20 17:28:11 2019

Wall Time:       21.52 seconds

                                                       Time (seconds)
Module                                       User      System        Wall        Calls

--------------------------------------------------------------------------------------

**************************************************************************************

Host: adabbott

Timers On : Wed Nov 20 17:28:41 2019
Timers Off: Wed Nov 20 17:28:57 2019

Wall Time:       16.13 seconds

                                                       Time (seconds)
Module                                       User      System        Wall        Calls

--------------------------------------------------------------------------------------

**************************************************************************************

Host: adabbott

Timers On : Wed Nov 20 17:29:34 2019
Timers Off: Wed Nov 20 17:29:50 2019

Wall Time:       16.37 seconds

                                                       Time (seconds)
Module                                       User      System        Wall        Calls

--------------------------------------------------------------------------------------

**************************************************************************************

Host: adabbott

Timers On : Wed Nov 20 17:30:08 2019
Timers Off: Wed Nov 20 17:30:24 2019

Wall Time:       16.23 seconds

                                                       Time (seconds)
Module                                       User      System        Wall        Calls

--------------------------------------------------------------------------------------

**************************************************************************************

Host: adabbott

Timers On : Wed Nov 20 17:30:31 2019
Timers Off: Wed Nov 20 17:30:47 2019

Wall Time:       16.43 seconds

                                                       Time (seconds)
Module                                       User      System        Wall        Calls

--------------------------------------------------------------------------------------

**************************************************************************************

Host: adabbott

Timers On : Wed Nov 20 17:31:09 2019
Timers Off: Wed Nov 20 17:31:29 2019

Wall Time:       19.45 seconds

                                                       Time (seconds)
Module                                       User      System        Wall        Calls

--------------------------------------------------------------------------------------

**************************************************************************************

Host: adabbott

Timers On : Wed Nov 20 17:32:18 2019
Timers Off: Wed Nov 20 17:32:34 2019

Wall Time:       15.96 seconds

                                                       Time (seconds)
Module                                       User      System        Wall        Calls

--------------------------------------------------------------------------------------

**************************************************************************************

Host: adabbott

Timers On : Wed Nov 20 17:32:49 2019
Timers Off: Wed Nov 20 17:33:11 2019

Wall Time:       21.91 seconds

                                                       Time (seconds)
Module                                       User      System        Wall        Calls

--------------------------------------------------------------------------------------

**************************************************************************************

Host: adabbott

Timers On : Wed Nov 20 17:33:28 2019
Timers Off: Wed Nov 20 17:33:44 2019

Wall Time:       16.02 seconds

                                                       Time (seconds)
Module                                       User      System        Wall        Calls

--------------------------------------------------------------------------------------

**************************************************************************************

Host: adabbott

Timers On : Wed Nov 20 17:34:18 2019
Timers Off: Wed Nov 20 17:34:35 2019

Wall Time:       16.35 seconds

                                                       Time (seconds)
Module                                       User      System        Wall        Calls

--------------------------------------------------------------------------------------

**************************************************************************************

Host: adabbott

Timers On : Wed Nov 20 17:39:20 2019
Timers Off: Wed Nov 20 17:41:02 2019

Wall Time:      102.62 seconds

                                                       Time (seconds)
Module                                       User      System        Wall        Calls

--------------------------------------------------------------------------------------

**************************************************************************************

Host: adabbott

Timers On : Thu Nov 21 12:30:39 2019
Timers Off: Thu Nov 21 12:31:30 2019

Wall Time:       51.02 seconds

                                                       Time (seconds)
Module                                       User      System        Wall        Calls

--------------------------------------------------------------------------------------

**************************************************************************************

Host: adabbott

Timers On : Thu Nov 21 12:31:59 2019
Timers Off: Thu Nov 21 12:32:00 2019

Wall Time:        0.91 seconds

                                                       Time (seconds)
Module                                       User      System        Wall        Calls

--------------------------------------------------------------------------------------

**************************************************************************************

Host: adabbott

Timers On : Thu Nov 21 12:33:12 2019
Timers Off: Thu Nov 21 12:33:13 2019

Wall Time:        1.66 seconds

                                                       Time (seconds)
Module                                       User      System        Wall        Calls

--------------------------------------------------------------------------------------

**************************************************************************************

Host: adabbott

Timers On : Thu Nov 21 12:33:20 2019
Timers Off: Thu Nov 21 12:33:23 2019

Wall Time:        2.58 seconds

                                                       Time (seconds)
Module                                       User      System        Wall        Calls

--------------------------------------------------------------------------------------

**************************************************************************************

Host: adabbott

Timers On : Thu Nov 21 12:33:32 2019
Timers Off: Thu Nov 21 12:33:43 2019

Wall Time:       11.04 seconds

                                                       Time (seconds)
Module                                       User      System        Wall        Calls

--------------------------------------------------------------------------------------

**************************************************************************************

Host: adabbott

Timers On : Thu Nov 21 12:51:39 2019
Timers Off: Thu Nov 21 12:51:57 2019

Wall Time:       18.30 seconds

                                                       Time (seconds)
Module                                       User      System        Wall        Calls

--------------------------------------------------------------------------------------

**************************************************************************************

Host: adabbott

Timers On : Thu Nov 21 12:57:14 2019
Timers Off: Thu Nov 21 12:57:15 2019

Wall Time:        0.68 seconds

                                                       Time (seconds)
Module                                       User      System        Wall        Calls

--------------------------------------------------------------------------------------

**************************************************************************************

Host: adabbott

Timers On : Thu Nov 21 12:58:10 2019
Timers Off: Thu Nov 21 12:58:34 2019

Wall Time:       23.91 seconds

                                                       Time (seconds)
Module                                       User      System        Wall        Calls

--------------------------------------------------------------------------------------

**************************************************************************************

Host: adabbott

Timers On : Thu Nov 21 13:08:00 2019
Timers Off: Thu Nov 21 13:08:00 2019

Wall Time:        0.69 seconds

                                                       Time (seconds)
Module                                       User      System        Wall        Calls

--------------------------------------------------------------------------------------

**************************************************************************************

Host: adabbott

Timers On : Thu Nov 21 13:08:17 2019
Timers Off: Thu Nov 21 13:08:18 2019

Wall Time:        0.67 seconds

                                                       Time (seconds)
Module                                       User      System        Wall        Calls

--------------------------------------------------------------------------------------

**************************************************************************************

Host: adabbott

Timers On : Thu Nov 21 13:14:29 2019
Timers Off: Thu Nov 21 13:14:29 2019

Wall Time:        0.69 seconds

                                                       Time (seconds)
Module                                       User      System        Wall        Calls

--------------------------------------------------------------------------------------

**************************************************************************************

Host: adabbott

Timers On : Thu Nov 21 13:16:15 2019
Timers Off: Thu Nov 21 13:16:16 2019

Wall Time:        0.68 seconds

                                                       Time (seconds)
Module                                       User      System        Wall        Calls

--------------------------------------------------------------------------------------

**************************************************************************************

Host: adabbott

Timers On : Thu Nov 21 13:16:32 2019
Timers Off: Thu Nov 21 13:16:32 2019

Wall Time:        0.69 seconds

                                                       Time (seconds)
Module                                       User      System        Wall        Calls

--------------------------------------------------------------------------------------

**************************************************************************************

Host: adabbott

Timers On : Thu Nov 21 13:19:06 2019
Timers Off: Thu Nov 21 13:19:06 2019

Wall Time:        0.68 seconds

                                                       Time (seconds)
Module                                       User      System        Wall        Calls

--------------------------------------------------------------------------------------

**************************************************************************************

Host: adabbott

Timers On : Thu Nov 21 13:19:12 2019
Timers Off: Thu Nov 21 13:19:13 2019

Wall Time:        0.71 seconds

                                                       Time (seconds)
Module                                       User      System        Wall        Calls

--------------------------------------------------------------------------------------

**************************************************************************************

Host: adabbott

Timers On : Thu Nov 21 13:19:25 2019
Timers Off: Thu Nov 21 13:19:25 2019

Wall Time:        0.68 seconds

                                                       Time (seconds)
Module                                       User      System        Wall        Calls

--------------------------------------------------------------------------------------

**************************************************************************************

Host: adabbott

Timers On : Thu Nov 21 13:45:36 2019
Timers Off: Thu Nov 21 13:45:54 2019

Wall Time:       18.10 seconds

                                                       Time (seconds)
Module                                       User      System        Wall        Calls

--------------------------------------------------------------------------------------

**************************************************************************************

Host: adabbott

Timers On : Thu Nov 21 13:46:14 2019
Timers Off: Thu Nov 21 13:46:32 2019

Wall Time:       18.00 seconds

                                                       Time (seconds)
Module                                       User      System        Wall        Calls

--------------------------------------------------------------------------------------

**************************************************************************************

Host: adabbott

Timers On : Thu Nov 21 14:10:20 2019
Timers Off: Thu Nov 21 14:10:21 2019

Wall Time:        0.71 seconds

                                                       Time (seconds)
Module                                       User      System        Wall        Calls

--------------------------------------------------------------------------------------

**************************************************************************************

Host: adabbott

Timers On : Thu Nov 21 14:11:08 2019
Timers Off: Thu Nov 21 14:11:09 2019

Wall Time:        0.73 seconds

                                                       Time (seconds)
Module                                       User      System        Wall        Calls

--------------------------------------------------------------------------------------

**************************************************************************************

Host: adabbott

Timers On : Thu Nov 21 14:11:31 2019
Timers Off: Thu Nov 21 14:11:32 2019

Wall Time:        1.11 seconds

                                                       Time (seconds)
Module                                       User      System        Wall        Calls

--------------------------------------------------------------------------------------

**************************************************************************************

Host: adabbott

Timers On : Thu Nov 21 14:11:40 2019
Timers Off: Thu Nov 21 14:11:41 2019

Wall Time:        1.03 seconds

                                                       Time (seconds)
Module                                       User      System        Wall        Calls

--------------------------------------------------------------------------------------

**************************************************************************************

Host: adabbott

Timers On : Thu Nov 21 14:11:51 2019
Timers Off: Thu Nov 21 14:11:52 2019

Wall Time:        1.00 seconds

                                                       Time (seconds)
Module                                       User      System        Wall        Calls

--------------------------------------------------------------------------------------

**************************************************************************************

Host: adabbott

Timers On : Thu Nov 21 14:12:05 2019
Timers Off: Thu Nov 21 14:12:06 2019

Wall Time:        0.99 seconds

                                                       Time (seconds)
Module                                       User      System        Wall        Calls

--------------------------------------------------------------------------------------

**************************************************************************************

Host: adabbott

Timers On : Thu Nov 21 14:12:34 2019
Timers Off: Thu Nov 21 14:12:35 2019

Wall Time:        0.99 seconds

                                                       Time (seconds)
Module                                       User      System        Wall        Calls

--------------------------------------------------------------------------------------

**************************************************************************************

Host: adabbott

Timers On : Thu Nov 21 14:12:43 2019
Timers Off: Thu Nov 21 14:12:44 2019

Wall Time:        1.28 seconds

                                                       Time (seconds)
Module                                       User      System        Wall        Calls

--------------------------------------------------------------------------------------

**************************************************************************************

Host: adabbott

Timers On : Thu Nov 21 14:12:54 2019
Timers Off: Thu Nov 21 14:12:55 2019

Wall Time:        0.98 seconds

                                                       Time (seconds)
Module                                       User      System        Wall        Calls

--------------------------------------------------------------------------------------

**************************************************************************************

Host: adabbott

Timers On : Thu Nov 21 14:13:17 2019
Timers Off: Thu Nov 21 14:13:17 2019

Wall Time:        0.58 seconds

                                                       Time (seconds)
Module                                       User      System        Wall        Calls

--------------------------------------------------------------------------------------

**************************************************************************************

Host: adabbott

Timers On : Thu Nov 21 14:13:30 2019
Timers Off: Thu Nov 21 14:13:39 2019

Wall Time:        9.69 seconds

                                                       Time (seconds)
Module                                       User      System        Wall        Calls

--------------------------------------------------------------------------------------

**************************************************************************************

Host: adabbott

Timers On : Thu Nov 21 14:13:50 2019
Timers Off: Thu Nov 21 14:14:07 2019

Wall Time:       17.30 seconds

                                                       Time (seconds)
Module                                       User      System        Wall        Calls

--------------------------------------------------------------------------------------

**************************************************************************************

Host: adabbott

Timers On : Thu Nov 21 14:18:04 2019
Timers Off: Thu Nov 21 14:18:05 2019

Wall Time:        0.74 seconds

                                                       Time (seconds)
Module                                       User      System        Wall        Calls

--------------------------------------------------------------------------------------

**************************************************************************************

Host: adabbott

Timers On : Thu Nov 21 14:18:19 2019
Timers Off: Thu Nov 21 14:18:22 2019

Wall Time:        3.44 seconds

                                                       Time (seconds)
Module                                       User      System        Wall        Calls

--------------------------------------------------------------------------------------

**************************************************************************************

Host: adabbott

Timers On : Thu Nov 21 14:18:38 2019
Timers Off: Thu Nov 21 14:18:41 2019

Wall Time:        3.00 seconds

                                                       Time (seconds)
Module                                       User      System        Wall        Calls

--------------------------------------------------------------------------------------

**************************************************************************************

Host: adabbott

Timers On : Thu Nov 21 14:19:40 2019
Timers Off: Thu Nov 21 14:19:43 2019

Wall Time:        3.07 seconds

                                                       Time (seconds)
Module                                       User      System        Wall        Calls

--------------------------------------------------------------------------------------

**************************************************************************************

Host: adabbott

Timers On : Thu Nov 21 14:20:33 2019
Timers Off: Thu Nov 21 14:20:36 2019

Wall Time:        3.04 seconds

                                                       Time (seconds)
Module                                       User      System        Wall        Calls

--------------------------------------------------------------------------------------

**************************************************************************************

Host: adabbott

Timers On : Thu Nov 21 14:21:28 2019
Timers Off: Thu Nov 21 14:21:31 2019

Wall Time:        3.27 seconds

                                                       Time (seconds)
Module                                       User      System        Wall        Calls

--------------------------------------------------------------------------------------

**************************************************************************************

Host: adabbott

Timers On : Thu Nov 21 14:22:18 2019
Timers Off: Thu Nov 21 14:22:18 2019

Wall Time:        0.59 seconds

                                                       Time (seconds)
Module                                       User      System        Wall        Calls

--------------------------------------------------------------------------------------

**************************************************************************************

Host: adabbott

Timers On : Thu Nov 21 14:22:22 2019
Timers Off: Thu Nov 21 14:22:41 2019

Wall Time:       18.51 seconds

                                                       Time (seconds)
Module                                       User      System        Wall        Calls

--------------------------------------------------------------------------------------

**************************************************************************************

Host: adabbott

Timers On : Thu Nov 21 14:43:25 2019
Timers Off: Thu Nov 21 14:43:26 2019

Wall Time:        1.16 seconds

                                                       Time (seconds)
Module                                       User      System        Wall        Calls

--------------------------------------------------------------------------------------

**************************************************************************************

Host: adabbott

Timers On : Thu Nov 21 14:43:45 2019
Timers Off: Thu Nov 21 14:43:47 2019

Wall Time:        1.52 seconds

                                                       Time (seconds)
Module                                       User      System        Wall        Calls

--------------------------------------------------------------------------------------

**************************************************************************************

Host: adabbott

Timers On : Thu Nov 21 14:45:27 2019
Timers Off: Thu Nov 21 14:45:31 2019

Wall Time:        3.39 seconds

                                                       Time (seconds)
Module                                       User      System        Wall        Calls

--------------------------------------------------------------------------------------

**************************************************************************************

Host: adabbott

Timers On : Thu Nov 21 14:45:46 2019
Timers Off: Thu Nov 21 14:45:49 2019

Wall Time:        3.42 seconds

                                                       Time (seconds)
Module                                       User      System        Wall        Calls

--------------------------------------------------------------------------------------

**************************************************************************************

Host: adabbott

Timers On : Thu Nov 21 14:51:55 2019
Timers Off: Thu Nov 21 14:51:58 2019

Wall Time:        3.37 seconds

                                                       Time (seconds)
Module                                       User      System        Wall        Calls

--------------------------------------------------------------------------------------

**************************************************************************************

Host: adabbott

Timers On : Thu Nov 21 14:52:24 2019
Timers Off: Thu Nov 21 14:52:27 2019

Wall Time:        3.37 seconds

                                                       Time (seconds)
Module                                       User      System        Wall        Calls

--------------------------------------------------------------------------------------

**************************************************************************************

Host: adabbott

Timers On : Thu Nov 21 14:53:01 2019
Timers Off: Thu Nov 21 14:53:11 2019

Wall Time:        9.47 seconds

                                                       Time (seconds)
Module                                       User      System        Wall        Calls

--------------------------------------------------------------------------------------

**************************************************************************************

Host: adabbott

Timers On : Thu Nov 21 14:53:29 2019
Timers Off: Thu Nov 21 14:53:33 2019

Wall Time:        3.35 seconds

                                                       Time (seconds)
Module                                       User      System        Wall        Calls

--------------------------------------------------------------------------------------

**************************************************************************************

Host: adabbott

Timers On : Thu Nov 21 14:53:55 2019
Timers Off: Thu Nov 21 14:54:02 2019

Wall Time:        6.54 seconds

                                                       Time (seconds)
Module                                       User      System        Wall        Calls

--------------------------------------------------------------------------------------

**************************************************************************************

Host: adabbott

Timers On : Thu Nov 21 14:54:17 2019
Timers Off: Thu Nov 21 14:54:30 2019

Wall Time:       13.49 seconds

                                                       Time (seconds)
Module                                       User      System        Wall        Calls

--------------------------------------------------------------------------------------

**************************************************************************************

Host: adabbott

Timers On : Thu Nov 21 14:58:28 2019
Timers Off: Thu Nov 21 14:59:01 2019

Wall Time:       32.55 seconds

                                                       Time (seconds)
Module                                       User      System        Wall        Calls

--------------------------------------------------------------------------------------

**************************************************************************************

Host: adabbott

Timers On : Thu Nov 21 15:00:50 2019
Timers Off: Thu Nov 21 15:02:47 2019

Wall Time:      116.50 seconds

                                                       Time (seconds)
Module                                       User      System        Wall        Calls

--------------------------------------------------------------------------------------

**************************************************************************************

Host: adabbott

Timers On : Thu Nov 21 15:03:00 2019
Timers Off: Thu Nov 21 15:04:23 2019

Wall Time:       83.31 seconds

                                                       Time (seconds)
Module                                       User      System        Wall        Calls

--------------------------------------------------------------------------------------

**************************************************************************************

Host: adabbott

Timers On : Thu Nov 21 15:07:04 2019
Timers Off: Thu Nov 21 15:07:13 2019

Wall Time:        8.32 seconds

                                                       Time (seconds)
Module                                       User      System        Wall        Calls

--------------------------------------------------------------------------------------

**************************************************************************************

Host: adabbott

Timers On : Thu Nov 21 15:07:35 2019
Timers Off: Thu Nov 21 15:07:43 2019

Wall Time:        8.05 seconds

                                                       Time (seconds)
Module                                       User      System        Wall        Calls

--------------------------------------------------------------------------------------

**************************************************************************************

Host: adabbott

Timers On : Thu Nov 21 15:08:25 2019
Timers Off: Thu Nov 21 15:08:47 2019

Wall Time:       22.57 seconds

                                                       Time (seconds)
Module                                       User      System        Wall        Calls

--------------------------------------------------------------------------------------

**************************************************************************************

Host: adabbott

Timers On : Thu Nov 21 15:09:12 2019
Timers Off: Thu Nov 21 15:10:04 2019

Wall Time:       51.72 seconds

                                                       Time (seconds)
Module                                       User      System        Wall        Calls

--------------------------------------------------------------------------------------

**************************************************************************************

Host: adabbott

Timers On : Thu Nov 21 15:10:40 2019
Timers Off: Thu Nov 21 15:11:56 2019

Wall Time:       75.82 seconds

                                                       Time (seconds)
Module                                       User      System        Wall        Calls

--------------------------------------------------------------------------------------

**************************************************************************************

Host: adabbott

Timers On : Thu Nov 21 15:12:17 2019
Timers Off: Thu Nov 21 15:14:10 2019

Wall Time:      112.89 seconds

                                                       Time (seconds)
Module                                       User      System        Wall        Calls

--------------------------------------------------------------------------------------

**************************************************************************************

Host: adabbott

Timers On : Thu Nov 21 15:15:06 2019
Timers Off: Thu Nov 21 15:15:07 2019

Wall Time:        0.72 seconds

                                                       Time (seconds)
Module                                       User      System        Wall        Calls

--------------------------------------------------------------------------------------

**************************************************************************************

Host: adabbott

Timers On : Thu Nov 21 15:15:28 2019
Timers Off: Thu Nov 21 15:15:29 2019

Wall Time:        0.96 seconds

                                                       Time (seconds)
Module                                       User      System        Wall        Calls

--------------------------------------------------------------------------------------

**************************************************************************************

Host: adabbott

Timers On : Thu Nov 21 15:16:02 2019
Timers Off: Thu Nov 21 15:16:02 2019

Wall Time:        0.81 seconds

                                                       Time (seconds)
Module                                       User      System        Wall        Calls

--------------------------------------------------------------------------------------

**************************************************************************************

Host: adabbott

Timers On : Thu Nov 21 15:16:23 2019
Timers Off: Thu Nov 21 15:16:24 2019

Wall Time:        0.87 seconds

                                                       Time (seconds)
Module                                       User      System        Wall        Calls

--------------------------------------------------------------------------------------

**************************************************************************************

Host: adabbott

Timers On : Thu Nov 21 15:16:34 2019
Timers Off: Thu Nov 21 15:16:35 2019

Wall Time:        0.76 seconds

                                                       Time (seconds)
Module                                       User      System        Wall        Calls

--------------------------------------------------------------------------------------

**************************************************************************************

Host: adabbott

Timers On : Thu Nov 21 15:16:48 2019
Timers Off: Thu Nov 21 15:16:49 2019

Wall Time:        0.96 seconds

                                                       Time (seconds)
Module                                       User      System        Wall        Calls

--------------------------------------------------------------------------------------

**************************************************************************************

Host: adabbott

Timers On : Thu Nov 21 15:17:35 2019
Timers Off: Thu Nov 21 15:17:36 2019

Wall Time:        0.87 seconds

                                                       Time (seconds)
Module                                       User      System        Wall        Calls

--------------------------------------------------------------------------------------

**************************************************************************************

Host: adabbott

Timers On : Thu Nov 21 15:15:03 2019
Timers Off: Thu Nov 21 15:18:12 2019

Wall Time:      189.89 seconds

                                                       Time (seconds)
Module                                       User      System        Wall        Calls

--------------------------------------------------------------------------------------

**************************************************************************************

Host: adabbott

Timers On : Thu Nov 21 15:20:58 2019
Timers Off: Thu Nov 21 15:21:21 2019

Wall Time:       23.17 seconds

                                                       Time (seconds)
Module                                       User      System        Wall        Calls

--------------------------------------------------------------------------------------

**************************************************************************************

Host: adabbott

Timers On : Thu Nov 21 15:22:04 2019
Timers Off: Thu Nov 21 15:22:29 2019

Wall Time:       24.51 seconds

                                                       Time (seconds)
Module                                       User      System        Wall        Calls

--------------------------------------------------------------------------------------

**************************************************************************************

Host: adabbott

Timers On : Thu Nov 21 15:22:36 2019
Timers Off: Thu Nov 21 15:22:37 2019

Wall Time:        0.99 seconds

                                                       Time (seconds)
Module                                       User      System        Wall        Calls

--------------------------------------------------------------------------------------

**************************************************************************************

Host: adabbott

Timers On : Thu Nov 21 15:22:45 2019
Timers Off: Thu Nov 21 15:22:46 2019

Wall Time:        0.92 seconds

                                                       Time (seconds)
Module                                       User      System        Wall        Calls

--------------------------------------------------------------------------------------

**************************************************************************************

Host: adabbott

Timers On : Thu Nov 21 15:22:55 2019
Timers Off: Thu Nov 21 15:22:56 2019

Wall Time:        1.49 seconds

                                                       Time (seconds)
Module                                       User      System        Wall        Calls

--------------------------------------------------------------------------------------

**************************************************************************************

Host: adabbott

Timers On : Thu Nov 21 15:22:04 2019
Timers Off: Thu Nov 21 15:25:21 2019

Wall Time:      196.62 seconds

                                                       Time (seconds)
Module                                       User      System        Wall        Calls

--------------------------------------------------------------------------------------

**************************************************************************************

Host: adabbott

Timers On : Thu Nov 21 15:26:24 2019
Timers Off: Thu Nov 21 15:26:25 2019

Wall Time:        1.10 seconds

                                                       Time (seconds)
Module                                       User      System        Wall        Calls

--------------------------------------------------------------------------------------

**************************************************************************************

Host: adabbott

Timers On : Thu Nov 21 15:27:49 2019
Timers Off: Thu Nov 21 15:27:50 2019

Wall Time:        0.87 seconds

                                                       Time (seconds)
Module                                       User      System        Wall        Calls

--------------------------------------------------------------------------------------

**************************************************************************************

Host: adabbott

Timers On : Thu Nov 21 15:31:39 2019
Timers Off: Thu Nov 21 15:31:40 2019

Wall Time:        0.87 seconds

                                                       Time (seconds)
Module                                       User      System        Wall        Calls

--------------------------------------------------------------------------------------

**************************************************************************************

Host: adabbott

Timers On : Thu Nov 21 15:34:31 2019
Timers Off: Thu Nov 21 15:34:32 2019

Wall Time:        0.80 seconds

                                                       Time (seconds)
Module                                       User      System        Wall        Calls

--------------------------------------------------------------------------------------

**************************************************************************************

Host: adabbott

Timers On : Thu Nov 21 15:35:04 2019
Timers Off: Thu Nov 21 15:35:05 2019

Wall Time:        0.72 seconds

                                                       Time (seconds)
Module                                       User      System        Wall        Calls

--------------------------------------------------------------------------------------

**************************************************************************************

Host: adabbott

Timers On : Thu Nov 21 15:35:11 2019
Timers Off: Thu Nov 21 15:35:12 2019

Wall Time:        0.81 seconds

                                                       Time (seconds)
Module                                       User      System        Wall        Calls

--------------------------------------------------------------------------------------

**************************************************************************************

Host: adabbott

Timers On : Thu Nov 21 15:36:36 2019
Timers Off: Thu Nov 21 15:36:37 2019

Wall Time:        0.81 seconds

                                                       Time (seconds)
Module                                       User      System        Wall        Calls

--------------------------------------------------------------------------------------

**************************************************************************************

Host: adabbott

Timers On : Thu Nov 21 15:43:47 2019
Timers Off: Thu Nov 21 15:43:48 2019

Wall Time:        0.68 seconds

                                                       Time (seconds)
Module                                       User      System        Wall        Calls

--------------------------------------------------------------------------------------

**************************************************************************************

Host: adabbott

Timers On : Thu Nov 21 15:56:51 2019
Timers Off: Thu Nov 21 15:56:52 2019

Wall Time:        0.75 seconds

                                                       Time (seconds)
Module                                       User      System        Wall        Calls

--------------------------------------------------------------------------------------

**************************************************************************************

Host: adabbott

Timers On : Thu Nov 21 15:58:33 2019
Timers Off: Thu Nov 21 15:58:33 2019

Wall Time:        0.68 seconds

                                                       Time (seconds)
Module                                       User      System        Wall        Calls

--------------------------------------------------------------------------------------

**************************************************************************************

Host: adabbott

Timers On : Thu Nov 21 15:58:50 2019
Timers Off: Thu Nov 21 15:58:50 2019

Wall Time:        0.68 seconds

                                                       Time (seconds)
Module                                       User      System        Wall        Calls

--------------------------------------------------------------------------------------

**************************************************************************************

Host: adabbott

Timers On : Thu Nov 21 15:59:28 2019
Timers Off: Thu Nov 21 15:59:29 2019

Wall Time:        0.67 seconds

                                                       Time (seconds)
Module                                       User      System        Wall        Calls

--------------------------------------------------------------------------------------

**************************************************************************************

Host: adabbott

Timers On : Thu Nov 21 16:01:06 2019
Timers Off: Thu Nov 21 16:01:07 2019

Wall Time:        0.72 seconds

                                                       Time (seconds)
Module                                       User      System        Wall        Calls

--------------------------------------------------------------------------------------

**************************************************************************************

Host: adabbott

Timers On : Thu Nov 21 16:01:37 2019
Timers Off: Thu Nov 21 16:01:38 2019

Wall Time:        0.72 seconds

                                                       Time (seconds)
Module                                       User      System        Wall        Calls

--------------------------------------------------------------------------------------

**************************************************************************************

Host: adabbott

[...]

                                                       Time (seconds)
Module                                       User      System        Wall        Calls

--------------------------------------------------------------------------------------

**************************************************************************************

Host: adabbott

Timers On : Thu Nov 21 17:08:31 2019
Timers Off: Thu Nov 21 17:08:32 2019

Wall Time:        0.66 seconds

                                                       Time (seconds)
Module                                       User      System        Wall        Calls

--------------------------------------------------------------------------------------

**************************************************************************************

Host: adabbott

Timers On : Thu Nov 21 17:08:43 2019
Timers Off: Thu Nov 21 17:08:44 2019

Wall Time:        0.68 seconds

                                                       Time (seconds)
Module                                       User      System        Wall        Calls

--------------------------------------------------------------------------------------

**************************************************************************************

Host: adabbott

Timers On : Thu Nov 21 17:16:22 2019
Timers Off: Thu Nov 21 17:16:23 2019

Wall Time:        0.68 seconds

                                                       Time (seconds)
Module                                       User      System        Wall        Calls

--------------------------------------------------------------------------------------

**************************************************************************************

Host: adabbott

Timers On : Thu Nov 21 17:17:16 2019
Timers Off: Thu Nov 21 17:17:17 2019

Wall Time:        0.68 seconds

                                                       Time (seconds)
Module                                       User      System        Wall        Calls

--------------------------------------------------------------------------------------

**************************************************************************************

Host: adabbott

Timers On : Thu Nov 21 17:17:35 2019
Timers Off: Thu Nov 21 17:17:36 2019

Wall Time:        0.69 seconds

                                                       Time (seconds)
Module                                       User      System        Wall        Calls

--------------------------------------------------------------------------------------

**************************************************************************************

Host: adabbott

Timers On : Thu Nov 21 17:17:49 2019
Timers Off: Thu Nov 21 17:17:50 2019

Wall Time:        0.70 seconds

                                                       Time (seconds)
Module                                       User      System        Wall        Calls

--------------------------------------------------------------------------------------

**************************************************************************************

Host: adabbott

Timers On : Thu Nov 21 17:24:32 2019
Timers Off: Thu Nov 21 17:24:33 2019

Wall Time:        0.66 seconds

                                                       Time (seconds)
Module                                       User      System        Wall        Calls

--------------------------------------------------------------------------------------

**************************************************************************************

Host: adabbott

Timers On : Thu Nov 21 17:25:11 2019
Timers Off: Thu Nov 21 17:25:12 2019

Wall Time:        0.67 seconds

                                                       Time (seconds)
Module                                       User      System        Wall        Calls

--------------------------------------------------------------------------------------

**************************************************************************************

Host: adabbott

Timers On : Thu Nov 21 17:28:13 2019
Timers Off: Thu Nov 21 17:28:13 2019

Wall Time:        0.67 seconds

                                                       Time (seconds)
Module                                       User      System        Wall        Calls

--------------------------------------------------------------------------------------

**************************************************************************************

Host: adabbott

Timers On : Thu Nov 21 17:28:27 2019
Timers Off: Thu Nov 21 17:28:28 2019

Wall Time:        0.67 seconds

                                                       Time (seconds)
Module                                       User      System        Wall        Calls

--------------------------------------------------------------------------------------

**************************************************************************************

Host: adabbott

Timers On : Thu Nov 21 17:29:10 2019
Timers Off: Thu Nov 21 17:29:11 2019

Wall Time:        0.67 seconds

                                                       Time (seconds)
Module                                       User      System        Wall        Calls

--------------------------------------------------------------------------------------

**************************************************************************************

Host: adabbott

Timers On : Thu Nov 21 17:30:43 2019
Timers Off: Thu Nov 21 17:30:44 2019

Wall Time:        0.66 seconds

                                                       Time (seconds)
Module                                       User      System        Wall        Calls

--------------------------------------------------------------------------------------

**************************************************************************************

Host: adabbott

Timers On : Thu Nov 21 17:31:02 2019
Timers Off: Thu Nov 21 17:31:02 2019

Wall Time:        0.69 seconds

                                                       Time (seconds)
Module                                       User      System        Wall        Calls

--------------------------------------------------------------------------------------

**************************************************************************************

Host: adabbott

Timers On : Thu Nov 21 17:33:15 2019
Timers Off: Thu Nov 21 17:33:18 2019

Wall Time:        2.93 seconds

                                                       Time (seconds)
Module                                       User      System        Wall        Calls

--------------------------------------------------------------------------------------

**************************************************************************************

Host: adabbott

Timers On : Thu Nov 21 17:33:29 2019
Timers Off: Thu Nov 21 17:33:32 2019

Wall Time:        2.99 seconds

                                                       Time (seconds)
Module                                       User      System        Wall        Calls

--------------------------------------------------------------------------------------

**************************************************************************************

Host: adabbott

Timers On : Thu Nov 21 17:33:56 2019
Timers Off: Thu Nov 21 17:33:59 2019

Wall Time:        2.93 seconds

                                                       Time (seconds)
Module                                       User      System        Wall        Calls

--------------------------------------------------------------------------------------

**************************************************************************************

Host: adabbott

Timers On : Thu Nov 21 17:34:26 2019
Timers Off: Thu Nov 21 17:34:29 2019

Wall Time:        2.95 seconds

                                                       Time (seconds)
Module                                       User      System        Wall        Calls

--------------------------------------------------------------------------------------

**************************************************************************************

Host: adabbott

Timers On : Thu Nov 21 17:34:49 2019
Timers Off: Thu Nov 21 17:34:53 2019

Wall Time:        3.09 seconds

                                                       Time (seconds)
Module                                       User      System        Wall        Calls

--------------------------------------------------------------------------------------

**************************************************************************************

Host: adabbott

Timers On : Thu Nov 21 17:35:30 2019
Timers Off: Thu Nov 21 17:35:37 2019

Wall Time:        6.94 seconds

                                                       Time (seconds)
Module                                       User      System        Wall        Calls

--------------------------------------------------------------------------------------

**************************************************************************************

Host: adabbott

Timers On : Thu Nov 21 17:35:49 2019
Timers Off: Thu Nov 21 17:38:31 2019

Wall Time:      161.74 seconds

                                                       Time (seconds)
Module                                       User      System        Wall        Calls

--------------------------------------------------------------------------------------

**************************************************************************************

Host: adabbott

Timers On : Thu Nov 21 17:39:45 2019
Timers Off: Thu Nov 21 17:42:35 2019

Wall Time:      169.45 seconds

                                                       Time (seconds)
Module                                       User      System        Wall        Calls

--------------------------------------------------------------------------------------

**************************************************************************************

Host: adabbott

Timers On : Thu Nov 21 17:43:16 2019
Timers Off: Thu Nov 21 17:45:56 2019

Wall Time:      159.61 seconds

                                                       Time (seconds)
Module                                       User      System        Wall        Calls

--------------------------------------------------------------------------------------

**************************************************************************************

Host: adabbott

Timers On : Thu Nov 21 17:52:32 2019
Timers Off: Thu Nov 21 17:52:36 2019

Wall Time:        3.75 seconds

                                                       Time (seconds)
Module                                       User      System        Wall        Calls

--------------------------------------------------------------------------------------

**************************************************************************************

Host: adabbott

Timers On : Thu Nov 21 17:53:24 2019
Timers Off: Thu Nov 21 17:53:28 2019

Wall Time:        3.91 seconds

                                                       Time (seconds)
Module                                       User      System        Wall        Calls

--------------------------------------------------------------------------------------

**************************************************************************************

Host: adabbott

Timers On : Thu Nov 21 17:53:41 2019
Timers Off: Thu Nov 21 17:53:45 2019

Wall Time:        3.90 seconds

                                                       Time (seconds)
Module                                       User      System        Wall        Calls

--------------------------------------------------------------------------------------

**************************************************************************************

Host: adabbott

Timers On : Thu Nov 21 17:53:57 2019
Timers Off: Thu Nov 21 17:54:07 2019

Wall Time:       10.39 seconds

                                                       Time (seconds)
Module                                       User      System        Wall        Calls

--------------------------------------------------------------------------------------

**************************************************************************************

Host: adabbott

Timers On : Thu Nov 21 17:54:21 2019
Timers Off: Thu Nov 21 17:54:31 2019

Wall Time:        9.99 seconds

                                                       Time (seconds)
Module                                       User      System        Wall        Calls

--------------------------------------------------------------------------------------

**************************************************************************************

Host: adabbott

Timers On : Thu Nov 21 17:54:41 2019
Timers Off: Thu Nov 21 17:54:51 2019

Wall Time:        9.57 seconds

                                                       Time (seconds)
Module                                       User      System        Wall        Calls

--------------------------------------------------------------------------------------

**************************************************************************************

Host: adabbott

Timers On : Thu Nov 21 17:56:02 2019
Timers Off: Thu Nov 21 17:58:21 2019

Wall Time:      139.15 seconds

                                                       Time (seconds)
Module                                       User      System        Wall        Calls

--------------------------------------------------------------------------------------

**************************************************************************************

Host: adabbott

Timers On : Fri Nov 22 09:52:35 2019
Timers Off: Fri Nov 22 09:52:40 2019

Wall Time:        4.65 seconds

                                                       Time (seconds)
Module                                       User      System        Wall        Calls

--------------------------------------------------------------------------------------

**************************************************************************************

Host: adabbott

Timers On : Fri Nov 22 09:53:57 2019
Timers Off: Fri Nov 22 09:54:21 2019

Wall Time:       23.55 seconds

                                                       Time (seconds)
Module                                       User      System        Wall        Calls

--------------------------------------------------------------------------------------

**************************************************************************************

Host: adabbott

Timers On : Fri Nov 22 09:58:19 2019
Timers Off: Fri Nov 22 10:00:16 2019

Wall Time:      117.00 seconds

                                                       Time (seconds)
Module                                       User      System        Wall        Calls

--------------------------------------------------------------------------------------

**************************************************************************************

Host: adabbott

Timers On : Fri Nov 22 10:13:07 2019
Timers Off: Fri Nov 22 10:13:08 2019

Wall Time:        0.94 seconds

                                                       Time (seconds)
Module                                       User      System        Wall        Calls

--------------------------------------------------------------------------------------

**************************************************************************************

Host: adabbott

Timers On : Fri Nov 22 10:13:30 2019
Timers Off: Fri Nov 22 10:15:29 2019

Wall Time:      119.27 seconds

                                                       Time (seconds)
Module                                       User      System        Wall        Calls

--------------------------------------------------------------------------------------

**************************************************************************************

Host: adabbott

Timers On : Fri Nov 22 10:18:36 2019
Timers Off: Fri Nov 22 10:21:01 2019

Wall Time:      145.22 seconds

                                                       Time (seconds)
Module                                       User      System        Wall        Calls

--------------------------------------------------------------------------------------

**************************************************************************************

Host: adabbott

Timers On : Fri Nov 22 10:22:58 2019
Timers Off: Fri Nov 22 10:25:12 2019

Wall Time:      133.96 seconds

                                                       Time (seconds)
Module                                       User      System        Wall        Calls

--------------------------------------------------------------------------------------

**************************************************************************************

Host: adabbott

Timers On : Fri Nov 22 10:25:47 2019
Timers Off: Fri Nov 22 10:27:30 2019

Wall Time:      103.89 seconds

                                                       Time (seconds)
Module                                       User      System        Wall        Calls

--------------------------------------------------------------------------------------

**************************************************************************************

Host: adabbott

Timers On : Fri Nov 22 12:03:56 2019
Timers Off: Fri Nov 22 12:05:31 2019

Wall Time:       94.81 seconds

                                                       Time (seconds)
Module                                       User      System        Wall        Calls

--------------------------------------------------------------------------------------

**************************************************************************************

Host: adabbott

Timers On : Fri Nov 22 16:57:51 2019
Timers Off: Fri Nov 22 16:57:52 2019

Wall Time:        0.92 seconds

                                                       Time (seconds)
Module                                       User      System        Wall        Calls

--------------------------------------------------------------------------------------

**************************************************************************************

Host: adabbott

Timers On : Mon Nov 25 11:11:03 2019
Timers Off: Mon Nov 25 11:11:23 2019

Wall Time:       20.64 seconds

                                                       Time (seconds)
Module                                       User      System        Wall        Calls

--------------------------------------------------------------------------------------

**************************************************************************************

Host: adabbott

Timers On : Mon Nov 25 11:15:48 2019
Timers Off: Mon Nov 25 11:16:12 2019

Wall Time:       23.84 seconds

                                                       Time (seconds)
Module                                       User      System        Wall        Calls

--------------------------------------------------------------------------------------

**************************************************************************************

Host: adabbott

Timers On : Tue Nov 26 18:25:33 2019
Timers Off: Tue Nov 26 18:25:34 2019

Wall Time:        0.41 seconds

                                                       Time (seconds)
Module                                       User      System        Wall        Calls

--------------------------------------------------------------------------------------

**************************************************************************************

Host: adabbott

Timers On : Wed Nov 27 12:30:36 2019
Timers Off: Wed Nov 27 12:30:59 2019

Wall Time:       23.44 seconds

                                                       Time (seconds)
Module                                       User      System        Wall        Calls

--------------------------------------------------------------------------------------

**************************************************************************************
