
Host: adabbott

Timers On : Mon Jun 29 14:06:13 2020
Timers Off: Mon Jun 29 14:06:44 2020

Wall Time:       30.93 seconds

                                                       Time (seconds)
Module                                       User      System        Wall        Calls

--------------------------------------------------------------------------------------

**************************************************************************************

Host: adabbott

Timers On : Mon Jun 29 14:07:21 2020
Timers Off: Mon Jun 29 14:07:43 2020

Wall Time:       22.21 seconds

                                                       Time (seconds)
Module                                       User      System        Wall        Calls

--------------------------------------------------------------------------------------

**************************************************************************************

Host: adabbott

Timers On : Mon Jun 29 14:11:34 2020
Timers Off: Mon Jun 29 14:14:06 2020

Wall Time:      152.06 seconds

                                                       Time (seconds)
Module                                       User      System        Wall        Calls

--------------------------------------------------------------------------------------

**************************************************************************************

Host: adabbott

Timers On : Mon Jun 29 14:16:58 2020
Timers Off: Mon Jun 29 14:19:31 2020

Wall Time:      152.82 seconds

                                                       Time (seconds)
Module                                       User      System        Wall        Calls

--------------------------------------------------------------------------------------

**************************************************************************************

Host: adabbott

Timers On : Mon Jun 29 14:23:43 2020
Timers Off: Mon Jun 29 14:26:14 2020

Wall Time:      151.65 seconds

                                                       Time (seconds)
Module                                       User      System        Wall        Calls

--------------------------------------------------------------------------------------

**************************************************************************************

Host: adabbott

Timers On : Tue Jun 30 13:35:32 2020
Timers Off: Tue Jun 30 13:40:53 2020

Wall Time:      320.79 seconds

                                                       Time (seconds)
Module                                       User      System        Wall        Calls

--------------------------------------------------------------------------------------

**************************************************************************************

Host: adabbott

Timers On : Tue Jun 30 13:51:37 2020
Timers Off: Tue Jun 30 13:57:08 2020

Wall Time:      331.07 seconds

                                                       Time (seconds)
Module                                       User      System        Wall        Calls

--------------------------------------------------------------------------------------

**************************************************************************************

Host: adabbott

Timers On : Tue Jun 30 13:57:44 2020
Timers Off: Tue Jun 30 14:03:20 2020

Wall Time:      336.65 seconds

                                                       Time (seconds)
Module                                       User      System        Wall        Calls

--------------------------------------------------------------------------------------

**************************************************************************************

Host: adabbott

Timers On : Tue Jun 30 14:39:26 2020
Timers Off: Tue Jun 30 14:50:10 2020

Wall Time:      643.90 seconds

                                                       Time (seconds)
Module                                       User      System        Wall        Calls

--------------------------------------------------------------------------------------

**************************************************************************************

Host: adabbott

Timers On : Tue Jun 30 14:51:02 2020
Timers Off: Tue Jun 30 15:01:29 2020

Wall Time:      627.67 seconds

                                                       Time (seconds)
Module                                       User      System        Wall        Calls

--------------------------------------------------------------------------------------

**************************************************************************************

Host: adabbott

Timers On : Tue Jun 30 15:01:57 2020
Timers Off: Tue Jun 30 15:12:23 2020

Wall Time:      625.62 seconds

                                                       Time (seconds)
Module                                       User      System        Wall        Calls

--------------------------------------------------------------------------------------

**************************************************************************************

Host: adabbott

Timers On : Tue Jun 30 16:31:29 2020
Timers Off: Tue Jun 30 16:51:59 2020

Wall Time:     1229.43 seconds

                                                       Time (seconds)
Module                                       User      System        Wall        Calls

--------------------------------------------------------------------------------------

**************************************************************************************

Host: adabbott

Timers On : Wed Jul  1 13:31:45 2020
Timers Off: Wed Jul  1 13:37:14 2020

Wall Time:      328.50 seconds

                                                       Time (seconds)
Module                                       User      System        Wall        Calls

--------------------------------------------------------------------------------------

**************************************************************************************
