
    -----------------------------------------------------------------------
          Psi4: An Open-Source Ab Initio Electronic Structure Package
                               Psi4 1.3.2 release

                         Git: Rev {HEAD} ecbda83 


    R. M. Parrish, L. A. Burns, D. G. A. Smith, A. C. Simmonett,
    A. E. DePrince III, E. G. Hohenstein, U. Bozkaya, A. Yu. Sokolov,
    R. Di Remigio, R. M. Richard, J. F. Gonthier, A. M. James,
    H. R. McAlexander, A. Kumar, M. Saitow, X. Wang, B. P. Pritchard,
    P. Verma, H. F. Schaefer III, K. Patkowski, R. A. King, E. F. Valeev,
    F. A. Evangelista, J. M. Turney, T. D. Crawford, and C. D. Sherrill,
    J. Chem. Theory Comput. 13(7) pp 3185--3197 (2017).
    (doi: 10.1021/acs.jctc.7b00174)


                         Additional Contributions by
    P. Kraus, H. Kruse, M. H. Lechner, M. C. Schieber, R. A. Shaw,
    A. Alenaizan, R. Galvelis, Z. L. Glick, S. Lehtola, and J. P. Misiewicz

    -----------------------------------------------------------------------


    Psi4 started on: Saturday, 07 September 2019 05:21PM

    Process ID: 11453
    Host:       adabbott
    PSIDATADIR: /home/adabbott/anaconda3/envs/autodiff/share/psi4
    Memory:     500.0 MiB
    Threads:    1
    
  ==> Input File <==

--------------------------------------------------------------------------
import psi4
import numpy as np

basis {
assign s_orb
[ s_orb ]
cartesian
****
H     0
S   1   1.00
      0.50000000000      1.0000000000
S   1   1.00
      0.40000000000      1.0000000000
S   1   1.00
      0.30000000000      1.0000000000
S   1   1.00
      0.20000000000      1.0000000000
S   1   1.00
      0.10000000000      1.0000000000
S   1   1.00
      0.05000000000      1.0000000000
****
}

molecule h2o {
symmetry c1
units bohr
0 1
H 0.000000000000 0.000000000000 -0.849220457955
H 0.000000000000 0.000000000000  0.849220457955
}

set scf_type pk
set mp2_type conv
set puream false
set e_convergence 10
set d_convergence 10
e, wfn = gradient('hf', return_wfn=True, dertype='gradient')
e, mp2wfn = gradient('mp2', return_wfn=True, dertype='gradient')
e, cepawfn = gradient('lccd', return_wfn=True)

print('HF Gradient')
print(np.asarray(wfn.gradient()))
print('MP2 Gradient')
print(np.asarray(mp2wfn.gradient()))
print('CEPA0 Gradient')
print(np.asarray(cepawfn.gradient()))

mol = wfn.molecule()
bs = wfn.basisset()
basis = psi4.core.BasisSet.build(mol)
mints = psi4.core.MintsHelper(basis)
F = np.asarray(wfn.Fa())
np.save('F3', F)


--------------------------------------------------------------------------
gradient() will perform analytic gradient computation.

*** tstart() called on adabbott
*** at Sat Sep  7 17:21:41 2019

   => Loading Basis Set <=

    Name: ANONYMOUS857C8FF6
    Role: ORBITAL
    Keyword: BASIS
    atoms 1-2 entry H          line     5 inputblock s_orb 


         ---------------------------------------------------------
                                   SCF
               by Justin Turney, Rob Parrish, Andy Simmonett
                          and Daniel G. A. Smith
                              RHF Reference
                        1 Threads,    500 MiB Core
         ---------------------------------------------------------

  ==> Geometry <==

    Molecular point group: c1
    Full point group: D_inf_h

    Geometry (in Bohr), charge = 0, multiplicity = 1:

       Center              X                  Y                   Z               Mass       
    ------------   -----------------  -----------------  -----------------  -----------------
         H            0.000000000000     0.000000000000    -0.849220457955     1.007825032230
         H            0.000000000000     0.000000000000     0.849220457955     1.007825032230

  Running in c1 symmetry.

  Rotational constants: A = ************  B =     41.41314  C =     41.41314 [cm^-1]
  Rotational constants: A = ************  B = 1241534.81138  C = 1241534.81138 [MHz]
  Nuclear repulsion =    0.588775264792897

  Charge       = 0
  Multiplicity = 1
  Electrons    = 2
  Nalpha       = 1
  Nbeta        = 1

  ==> Algorithm <==

  SCF Algorithm Type is PK.
  DIIS enabled.
  MOM disabled.
  Fractional occupation disabled.
  Guess Type is SAD.
  Energy threshold   = 1.00e-10
  Density threshold  = 1.00e-10
  Integral threshold = 0.00e+00

  ==> Primary Basis <==

  Basis Set: ANONYMOUS857C8FF6
    Blend: S_ORB
    Number of shells: 12
    Number of basis function: 12
    Number of Cartesian functions: 12
    Spherical Harmonics?: false
    Max angular momentum: 0

  ==> Pre-Iterations <==

   -------------------------------------------------------
    Irrep   Nso     Nmo     Nalpha   Nbeta   Ndocc  Nsocc
   -------------------------------------------------------
     A         12      12       0       0       0       0
   -------------------------------------------------------
    Total      12      12       1       1       1       0
   -------------------------------------------------------

  ==> Integral Setup <==

  Using in-core PK algorithm.
   Calculation information:
      Number of atoms:                   2
      Number of AO shells:              12
      Number of primitives:             12
      Number of atomic orbitals:        12
      Number of basis functions:        12

      Integral cutoff                 1.00e-12
      Number of threads:                 1

  Performing in-core PK
  Using 6162 doubles for integral storage.
  We computed 3081 shell quartets total.
  Whereas there are 3081 unique shell quartets.

  ==> DiskJK: Disk-Based J/K Matrices <==

    J tasked:                  Yes
    K tasked:                  Yes
    wK tasked:                  No
    Memory [MiB]:              375
    Schwarz Cutoff:          1E-12

    OpenMP threads:              1

  Minimum eigenvalue in the overlap matrix is 5.4500105333E-06.
  Using Symmetric Orthogonalization.

  SCF Guess: Superposition of Atomic Densities via on-the-fly atomic UHF.

  ==> Iterations <==

                        Total Energy        Delta E     RMS |[F,P]|

   @RHF iter SAD:    -0.81414781302129   -8.14148e-01   0.00000e+00 
   @RHF iter   1:    -1.06540718571803   -2.51259e-01   3.74043e-03 DIIS
   @RHF iter   2:    -1.06851248703188   -3.10530e-03   8.41646e-04 DIIS
   @RHF iter   3:    -1.06870067437264   -1.88187e-04   6.81863e-05 DIIS
   @RHF iter   4:    -1.06870168545425   -1.01108e-06   3.05177e-06 DIIS
   @RHF iter   5:    -1.06870168692058   -1.46633e-09   3.26892e-07 DIIS
   @RHF iter   6:    -1.06870168693320   -1.26228e-11   1.11923e-08 DIIS
   @RHF iter   7:    -1.06870168694792   -1.47189e-11   3.04655e-10 DIIS
   @RHF iter   8:    -1.06870168693662    1.12976e-11   3.43959e-11 DIIS
  Energy and wave function converged.


  ==> Post-Iterations <==

    Orbital Energies [Eh]
    ---------------------

    Doubly Occupied:                                                      

       1A     -0.537231  

    Virtual:                                                              

       2A      0.073029     3A      0.077285     4A      0.206688  
       5A      0.346713     6A      0.508959     7A      0.859705  
       8A      1.024158     9A      1.880801    10A      2.033312  
      11A      3.449655    12A      3.465943  

    Final Occupation by Irrep:
              A 
    DOCC [     1 ]

  @RHF Final Energy:    -1.06870168693662

   => Energetics <=

    Nuclear Repulsion Energy =              0.5887752647928965
    One-Electron Energy =                  -2.2404912866414293
    Two-Electron Energy =                   0.5830143349119119
    Total Energy =                         -1.0687016869366208

Computation Completed


Properties will be evaluated at   0.000000,   0.000000,   0.000000 [a0]

Properties computed using the SCF density matrix

  Nuclear Dipole Moment: [e a0]
     X:     0.0000      Y:     0.0000      Z:     0.0000

  Electronic Dipole Moment: [e a0]
     X:     0.0000      Y:     0.0000      Z:    -0.0000

  Dipole Moment: [e a0]
     X:     0.0000      Y:     0.0000      Z:    -0.0000     Total:     0.0000

  Dipole Moment: [D]
     X:     0.0000      Y:     0.0000      Z:    -0.0000     Total:     0.0000


*** tstop() called on adabbott at Sat Sep  7 17:21:42 2019
Module time:
	user time   =       0.21 seconds =       0.00 minutes
	system time =       0.00 seconds =       0.00 minutes
	total time  =          1 seconds =       0.02 minutes
Total time:
	user time   =       0.21 seconds =       0.00 minutes
	system time =       0.00 seconds =       0.00 minutes
	total time  =          1 seconds =       0.02 minutes

*** tstart() called on adabbott
*** at Sat Sep  7 17:21:42 2019


         ------------------------------------------------------------
                                   SCF GRAD                          
                          Rob Parrish, Justin Turney,                
                       Andy Simmonett, and Alex Sokolov              
         ------------------------------------------------------------

  ==> Geometry <==

    Molecular point group: c1
    Full point group: D_inf_h

    Geometry (in Bohr), charge = 0, multiplicity = 1:

       Center              X                  Y                   Z               Mass       
    ------------   -----------------  -----------------  -----------------  -----------------
         H            0.000000000000     0.000000000000    -0.849220457955     1.007825032230
         H            0.000000000000     0.000000000000     0.849220457955     1.007825032230

  Nuclear repulsion =    0.588775264792897

  ==> Basis Set <==

  Basis Set: ANONYMOUS857C8FF6
    Blend: S_ORB
    Number of shells: 12
    Number of basis function: 12
    Number of Cartesian functions: 12
    Spherical Harmonics?: false
    Max angular momentum: 0

  ==> DirectJKGrad: Integral-Direct SCF Gradients <==

    Gradient:                    1
    J tasked:                  Yes
    K tasked:                  Yes
    wK tasked:                  No
    Integrals threads:           1
    Schwarz Cutoff:          0E+00


  -Total Gradient:
     Atom            X                  Y                   Z
    ------   -----------------  -----------------  -----------------
       1        0.000000000000     0.000000000000    -0.056090035631
       2        0.000000000000     0.000000000000     0.056090035630


*** tstop() called on adabbott at Sat Sep  7 17:21:42 2019
Module time:
	user time   =       0.03 seconds =       0.00 minutes
	system time =       0.00 seconds =       0.00 minutes
	total time  =          0 seconds =       0.00 minutes
Total time:
	user time   =       0.24 seconds =       0.00 minutes
	system time =       0.00 seconds =       0.00 minutes
	total time  =          1 seconds =       0.02 minutes
gradient() will perform analytic gradient computation.

*** tstart() called on adabbott
*** at Sat Sep  7 17:21:42 2019

   => Loading Basis Set <=

    Name: ANONYMOUS857C8FF6
    Role: ORBITAL
    Keyword: BASIS
    atoms 1-2 entry H          line     5 inputblock s_orb 


         ---------------------------------------------------------
                                   SCF
               by Justin Turney, Rob Parrish, Andy Simmonett
                          and Daniel G. A. Smith
                              RHF Reference
                        1 Threads,    500 MiB Core
         ---------------------------------------------------------

  ==> Geometry <==

    Molecular point group: c1
    Full point group: D_inf_h

    Geometry (in Bohr), charge = 0, multiplicity = 1:

       Center              X                  Y                   Z               Mass       
    ------------   -----------------  -----------------  -----------------  -----------------
         H            0.000000000000     0.000000000000    -0.849220457955     1.007825032230
         H            0.000000000000     0.000000000000     0.849220457955     1.007825032230

  Running in c1 symmetry.

  Rotational constants: A = ************  B =     41.41314  C =     41.41314 [cm^-1]
  Rotational constants: A = ************  B = 1241534.81138  C = 1241534.81138 [MHz]
  Nuclear repulsion =    0.588775264792897

  Charge       = 0
  Multiplicity = 1
  Electrons    = 2
  Nalpha       = 1
  Nbeta        = 1

  ==> Algorithm <==

  SCF Algorithm Type is PK.
  DIIS enabled.
  MOM disabled.
  Fractional occupation disabled.
  Guess Type is SAD.
  Energy threshold   = 1.00e-10
  Density threshold  = 1.00e-10
  Integral threshold = 0.00e+00

  ==> Primary Basis <==

  Basis Set: ANONYMOUS857C8FF6
    Blend: S_ORB
    Number of shells: 12
    Number of basis function: 12
    Number of Cartesian functions: 12
    Spherical Harmonics?: false
    Max angular momentum: 0

  ==> Pre-Iterations <==

   -------------------------------------------------------
    Irrep   Nso     Nmo     Nalpha   Nbeta   Ndocc  Nsocc
   -------------------------------------------------------
     A         12      12       0       0       0       0
   -------------------------------------------------------
    Total      12      12       1       1       1       0
   -------------------------------------------------------

  ==> Integral Setup <==

  Using in-core PK algorithm.
   Calculation information:
      Number of atoms:                   2
      Number of AO shells:              12
      Number of primitives:             12
      Number of atomic orbitals:        12
      Number of basis functions:        12

      Integral cutoff                 1.00e-12
      Number of threads:                 1

  Performing in-core PK
  Using 6162 doubles for integral storage.
  We computed 3081 shell quartets total.
  Whereas there are 3081 unique shell quartets.

  ==> DiskJK: Disk-Based J/K Matrices <==

    J tasked:                  Yes
    K tasked:                  Yes
    wK tasked:                  No
    Memory [MiB]:              375
    Schwarz Cutoff:          1E-12

    OpenMP threads:              1

  Minimum eigenvalue in the overlap matrix is 5.4500105333E-06.
  Using Symmetric Orthogonalization.

  SCF Guess: Superposition of Atomic Densities via on-the-fly atomic UHF.

  ==> Iterations <==

                        Total Energy        Delta E     RMS |[F,P]|

   @RHF iter SAD:    -0.81414781302352   -8.14148e-01   0.00000e+00 
   @RHF iter   1:    -1.06540718572208   -2.51259e-01   3.74043e-03 DIIS
   @RHF iter   2:    -1.06851248703877   -3.10530e-03   8.41646e-04 DIIS
   @RHF iter   3:    -1.06870067436233   -1.88187e-04   6.81863e-05 DIIS
   @RHF iter   4:    -1.06870168546003   -1.01110e-06   3.05177e-06 DIIS
   @RHF iter   5:    -1.06870168693709   -1.47706e-09   3.26895e-07 DIIS
   @RHF iter   6:    -1.06870168692318    1.39160e-11   1.12030e-08 DIIS
   @RHF iter   7:    -1.06870168693106   -7.87992e-12   2.86207e-10 DIIS
   @RHF iter   8:    -1.06870168693460   -3.53850e-12   2.53654e-11 DIIS
  Energy and wave function converged.


  ==> Post-Iterations <==

    Orbital Energies [Eh]
    ---------------------

    Doubly Occupied:                                                      

       1A     -0.537231  

    Virtual:                                                              

       2A      0.073029     3A      0.077285     4A      0.206688  
       5A      0.346713     6A      0.508959     7A      0.859705  
       8A      1.024158     9A      1.880801    10A      2.033312  
      11A      3.449655    12A      3.465943  

    Final Occupation by Irrep:
              A 
    DOCC [     1 ]

  @RHF Final Energy:    -1.06870168693460

   => Energetics <=

    Nuclear Repulsion Energy =              0.5887752647928965
    One-Electron Energy =                  -2.2404912866341888
    Two-Electron Energy =                   0.5830143349066965
    Total Energy =                         -1.0687016869345958

Computation Completed


Properties will be evaluated at   0.000000,   0.000000,   0.000000 [a0]

Properties computed using the SCF density matrix

  Nuclear Dipole Moment: [e a0]
     X:     0.0000      Y:     0.0000      Z:     0.0000

  Electronic Dipole Moment: [e a0]
     X:     0.0000      Y:     0.0000      Z:     0.0000

  Dipole Moment: [e a0]
     X:     0.0000      Y:     0.0000      Z:     0.0000     Total:     0.0000

  Dipole Moment: [D]
     X:     0.0000      Y:     0.0000      Z:     0.0000     Total:     0.0000


*** tstop() called on adabbott at Sat Sep  7 17:21:42 2019
Module time:
	user time   =       0.19 seconds =       0.00 minutes
	system time =       0.00 seconds =       0.00 minutes
	total time  =          0 seconds =       0.00 minutes
Total time:
	user time   =       0.44 seconds =       0.01 minutes
	system time =       0.00 seconds =       0.00 minutes
	total time  =          1 seconds =       0.02 minutes
 MINTS: Wrapper to libmints.
   by Justin Turney

   Calculation information:
      Number of threads:                 1
      Number of atoms:                   2
      Number of AO shells:              12
      Number of SO shells:              12
      Number of primitives:             12
      Number of atomic orbitals:        12
      Number of basis functions:        12

      Number of irreps:                  1
      Integral cutoff                 0.00e+00
      Number of functions per irrep: [  12 ]

 OEINTS: Overlap, kinetic, potential, dipole, and quadrupole integrals
         stored in file 35.

      Computing two-electron integrals...done
      Computed 3081 non-zero two-electron integrals.
        Stored in file 33.


*** tstart() called on adabbott
*** at Sat Sep  7 17:21:42 2019



  Module OCC Options:
  ----------------------------------------------------------------------------
  ACTIVE                        => (empty)          
  BASIS_RELATIVISTIC            => (empty)          
  BENCH                         => (empty)          
  CACHELEVEL                    => (empty)          
  CCL_ENERGY                    => (empty)          
  CC_DIIS_MAX_VECS              => (empty)          
  CC_DIIS_MIN_VECS              => (empty)          
  CC_MAXITER                    => (empty)          
  CC_TYPE                       => (empty)          
  CEPA_OS_SCALE                 => (empty)          
  CEPA_SOS_SCALE                => (empty)          
  CEPA_SS_SCALE                 => (empty)          
  CEPA_TYPE                     => (empty)          
  CI_TYPE                       => (empty)          
  CUBEPROP_BASIS_FUNCTIONS      => (empty)          
  CUBEPROP_FILEPATH             => (empty)          
  CUBEPROP_ISOCONTOUR_THRESHOLD => (empty)          
  CUBEPROP_ORBITALS             => (empty)          
  CUBEPROP_TASKS                => (empty)          
  CUBIC_BASIS_TOLERANCE         => (empty)          
  CUBIC_BLOCK_MAX_POINTS        => (empty)          
  CUBIC_GRID_OVERAGE            => (empty)          
  CUBIC_GRID_SPACING            => (empty)          
  CUTOFF                        => (empty)          
  DEBUG                         => (empty)          
  DERTYPE                       => FIRST           !
  DF_BASIS_CC                   => (empty)         !
  DIE_IF_NOT_CONVERGED          => (empty)         !
  DKH_ORDER                     => (empty)         !
  DOCC                          => (empty)         !
  DO_DIIS                       => (empty)         !
  DO_LEVEL_SHIFT                => (empty)         !
  DO_SCS                        => FALSE           !
  DO_SOS                        => FALSE           !
  E3_SCALE                      => (empty)         !
  EA_POLES                      => (empty)         !
  EKT_EA                        => (empty)         !
  EKT_IP                        => (empty)         !
  EP_EA_POLES                   => (empty)         !
  EP_IP_POLES                   => (empty)         !
  EP_MAXITER                    => (empty)         !
  EXTERNAL_POTENTIAL_SYMMETRY   => (empty)         !
  E_CONVERGENCE                 => 1e-10           !
  FREEZE_CORE                   => (empty)         !
  FROZEN_DOCC                   => (empty)         !
  FROZEN_UOCC                   => (empty)         !
  INTEGRAL_PACKAGE              => (empty)         !
  IP_POLES                      => (empty)         !
  LEVEL_SHIFT                   => (empty)         !
  LINEQ_SOLVER                  => (empty)         !
  LITERAL_CFOUR                 => (empty)         !
  MAT_NUM_COLUMN_PRINT          => (empty)         !
  MAX_MOGRAD_CONVERGENCE        => (empty)         !
  MOGRAD_DAMPING                => (empty)         !
  MOLDEN_WITH_VIRTUAL           => (empty)         !
  MO_DIIS_NUM_VECS              => (empty)         !
  MO_MAXITER                    => (empty)         !
  MO_READ                       => (empty)         !
  MO_STEP_MAX                   => (empty)         !
  MO_WRITE                      => (empty)         !
  MP2_OS_SCALE                  => (empty)         !
  MP2_SOS_SCALE                 => (empty)         !
  MP2_SOS_SCALE2                => (empty)         !
  MP2_SS_SCALE                  => (empty)         !
  MP2_TYPE                      => CONV            !
  MP_TYPE                       => (empty)         !
  NAT_ORBS                      => (empty)         !
  NUM_FROZEN_DOCC               => (empty)         !
  NUM_FROZEN_UOCC               => (empty)         !
  NUM_GPUS                      => (empty)         !
  OCC_ORBS_PRINT                => (empty)         !
  OEPROP                        => (empty)         !
  OPT_METHOD                    => (empty)         !
  ORB_OPT                       => FALSE           !
  ORB_RESP_SOLVER               => (empty)         !
  ORTH_TYPE                     => (empty)         !
  PCG_BETA_TYPE                 => (empty)         !
  PCG_CONVERGENCE               => (empty)         !
  PCG_MAXITER                   => (empty)         !
  PCM                           => (empty)         !
  PRINT                         => (empty)         !
  PRINT_NOONS                   => (empty)         !
  PROPERTIES                    => (empty)         !
  PROPERTIES_ORIGIN             => (empty)         !
  PUREAM                        => FALSE           !
  QC_MODULE                     => (empty)         !
  RAS1                          => (empty)         !
  RAS2                          => (empty)         !
  RAS3                          => (empty)         !
  RAS4                          => (empty)         !
  RELATIVISTIC                  => (empty)         !
  RELAXED                       => (empty)         !
  RESTRICTED_DOCC               => (empty)         !
  RESTRICTED_UOCC               => (empty)         !
  RMS_MOGRAD_CONVERGENCE        => (empty)         !
  R_CONVERGENCE                 => (empty)         !
  SCF_TYPE                      => PK              !
  SCS_TYPE                      => (empty)         !
  SOCC                          => (empty)         !
  SOS_TYPE                      => (empty)         !
  SYMMETRIZE                    => (empty)         !
  TPDM_ABCD_TYPE                => (empty)         !
  WFN                           => (empty)         !
  WFN_TYPE                      => OMP2            !
  WRITER_FILE_LABEL             => (empty)         !


 ============================================================================== 
 ============================================================================== 
 ============================================================================== 

                       MP2   
              Program Written by Ugur Bozkaya,
              Latest Revision June 25, 2014.

 ============================================================================== 
 ============================================================================== 
 ============================================================================== 

	RMS orbital gradient is changed to :     1.00e-07
	MAX orbital gradient is changed to :     1.00e-04
	MO spaces per irreps... 

	IRREP   FC    OCC   VIR  FV 
	==============================
	   A     0     1    11    0
	==============================

	Memory is    524 MB 
	Cost of iabc is      0 MB 
	Cost of abcd is      0 MB 
	Switching to the incore algorithm for iabc..
	Switching to the incore algorithm for abcd..

	Computing MP2 energy using SCF MOs (Canonical MP2)... 
	============================================================================== 
	Nuclear Repulsion Energy (a.u.)    :     0.58877526479290
	SCF Energy (a.u.)                  :    -1.06870168693460
	REF Energy (a.u.)                  :    -1.06870168693460
	Alpha-Alpha Contribution (a.u.)    :     0.00000000000000
	Alpha-Beta Contribution (a.u.)     :    -0.01732833191395
	Beta-Beta Contribution (a.u.)      :     0.00000000000000
	Scaled_SS Correlation Energy (a.u.):     0.00000000000000
	Scaled_OS Correlation Energy (a.u.):    -0.02079399829674
	SCS-MP2 Total Energy (a.u.)        :    -1.08949568523134
	SOS-MP2 Total Energy (a.u.)        :    -1.06870168693460
	SCSN-MP2 Total Energy (a.u.)       :    -1.06870168693460
	SCS-MP2-VDW Total Energy (a.u.)    :    -1.09088195178445
	SOS-PI-MP2 Total Energy (a.u.)     :    -1.09296135161413
	MP2 Correlation Energy (a.u.)      :    -0.01732833191395
	MP2 Total Energy (a.u.)            :    -1.08603001884855
	============================================================================== 
	Analytic gradient computation is starting...
	Computing response density matrices...
	Computing off-diagonal blocks of GFM...
	Forming independent-pairs...
	Number of independent-pairs:  11
	Computing orbital gradient...
	Computing diagonal blocks of GFM...
	Solving orbital Z-vector equations...
	Forming relaxed response density matrices...
	Forming relaxed GFM...
	Writing particle density matrices and GFM to disk...
	Necessary information has been sent to DERIV, which will take care of the rest.

*** tstop() called on adabbott at Sat Sep  7 17:21:42 2019
Module time:
	user time   =       0.00 seconds =       0.00 minutes
	system time =       0.01 seconds =       0.00 minutes
	total time  =          0 seconds =       0.00 minutes
Total time:
	user time   =       0.46 seconds =       0.01 minutes
	system time =       0.01 seconds =       0.00 minutes
	total time  =          1 seconds =       0.02 minutes
  Cartesian Displacement SALCs
  By SALC:
  Number of SALCs: 6, nirreps: A
  Project out translations: False
  Project out rotations: False
	irrep = 0, ncomponent = 1
		0: atom 0, direction x, coef 1.000000
	irrep = 0, ncomponent = 1
		0: atom 0, direction y, coef 1.000000
	irrep = 0, ncomponent = 1
		0: atom 0, direction z, coef 1.000000
	irrep = 0, ncomponent = 1
		0: atom 1, direction x, coef 1.000000
	irrep = 0, ncomponent = 1
		0: atom 1, direction y, coef 1.000000
	irrep = 0, ncomponent = 1
		0: atom 1, direction z, coef 1.000000

  By Atomic Center:
  Number of atomic centers: 2
   Atomic Center 0:
	x component, size = 1
		0: salc 0, irrep 0, coef 1.000000
	y component, size = 1
		0: salc 1, irrep 0, coef 1.000000
	z component, size = 1
		0: salc 2, irrep 0, coef 1.000000
   Atomic Center 1:
	x component, size = 1
		0: salc 3, irrep 0, coef 1.000000
	y component, size = 1
		0: salc 4, irrep 0, coef 1.000000
	z component, size = 1
		0: salc 5, irrep 0, coef 1.000000

    Molecular point group: c1
    Full point group: D_inf_h

    Geometry (in Bohr), charge = 0, multiplicity = 1:

       Center              X                  Y                   Z       
    ------------   -----------------  -----------------  -----------------
         H            0.000000000000     0.000000000000    -0.849220457955
         H            0.000000000000     0.000000000000     0.849220457955

	Presorting MO-basis TPDM.
	Sorting File: MO TPDM (AA|AA) nbuckets = 1
	Starting first half-transformation.
	Sorting half-transformed TPDM.
	First half integral transformation complete.


  -Nuclear Repulsion Energy 1st Derivatives:
     Atom            X                  Y                   Z
    ------   -----------------  -----------------  -----------------
       1        0.000000000000     0.000000000000     0.346656312432
       2        0.000000000000     0.000000000000    -0.346656312432


  -Core Hamiltonian Gradient:
     Atom            X                  Y                   Z
    ------   -----------------  -----------------  -----------------
       1        0.000000000000     0.000000000000    -0.892052127834
       2        0.000000000000     0.000000000000     0.892052127834


  -Lagrangian contribution to gradient:
     Atom            X                  Y                   Z
    ------   -----------------  -----------------  -----------------
       1        0.000000000000     0.000000000000     0.193244562604
       2        0.000000000000     0.000000000000    -0.193244562604


  -Two-electron contribution to gradient:
     Atom            X                  Y                   Z
    ------   -----------------  -----------------  -----------------
       1        0.000000000000     0.000000000000     0.301725702304
       2        0.000000000000     0.000000000000    -0.301725702300


  -Total gradient:
     Atom            X                  Y                   Z
    ------   -----------------  -----------------  -----------------
       1        0.000000000000     0.000000000000    -0.050425550494
       2        0.000000000000     0.000000000000     0.050425550498

gradient() will perform analytic gradient computation.

*** tstart() called on adabbott
*** at Sat Sep  7 17:21:42 2019

   => Loading Basis Set <=

    Name: ANONYMOUS857C8FF6
    Role: ORBITAL
    Keyword: BASIS
    atoms 1-2 entry H          line     5 inputblock s_orb 


         ---------------------------------------------------------
                                   SCF
               by Justin Turney, Rob Parrish, Andy Simmonett
                          and Daniel G. A. Smith
                              RHF Reference
                        1 Threads,    500 MiB Core
         ---------------------------------------------------------

  ==> Geometry <==

    Molecular point group: c1
    Full point group: D_inf_h

    Geometry (in Bohr), charge = 0, multiplicity = 1:

       Center              X                  Y                   Z               Mass       
    ------------   -----------------  -----------------  -----------------  -----------------
         H            0.000000000000     0.000000000000    -0.849220457955     1.007825032230
         H            0.000000000000     0.000000000000     0.849220457955     1.007825032230

  Running in c1 symmetry.

  Rotational constants: A = ************  B =     41.41314  C =     41.41314 [cm^-1]
  Rotational constants: A = ************  B = 1241534.81138  C = 1241534.81138 [MHz]
  Nuclear repulsion =    0.588775264792897

  Charge       = 0
  Multiplicity = 1
  Electrons    = 2
  Nalpha       = 1
  Nbeta        = 1

  ==> Algorithm <==

  SCF Algorithm Type is PK.
  DIIS enabled.
  MOM disabled.
  Fractional occupation disabled.
  Guess Type is SAD.
  Energy threshold   = 1.00e-10
  Density threshold  = 1.00e-10
  Integral threshold = 0.00e+00

  ==> Primary Basis <==

  Basis Set: ANONYMOUS857C8FF6
    Blend: S_ORB
    Number of shells: 12
    Number of basis function: 12
    Number of Cartesian functions: 12
    Spherical Harmonics?: false
    Max angular momentum: 0

  ==> Pre-Iterations <==

   -------------------------------------------------------
    Irrep   Nso     Nmo     Nalpha   Nbeta   Ndocc  Nsocc
   -------------------------------------------------------
     A         12      12       0       0       0       0
   -------------------------------------------------------
    Total      12      12       1       1       1       0
   -------------------------------------------------------

  ==> Integral Setup <==

  Using in-core PK algorithm.
   Calculation information:
      Number of atoms:                   2
      Number of AO shells:              12
      Number of primitives:             12
      Number of atomic orbitals:        12
      Number of basis functions:        12

      Integral cutoff                 1.00e-12
      Number of threads:                 1

  Performing in-core PK
  Using 6162 doubles for integral storage.
  We computed 3081 shell quartets total.
  Whereas there are 3081 unique shell quartets.

  ==> DiskJK: Disk-Based J/K Matrices <==

    J tasked:                  Yes
    K tasked:                  Yes
    wK tasked:                  No
    Memory [MiB]:              375
    Schwarz Cutoff:          1E-12

    OpenMP threads:              1

  Minimum eigenvalue in the overlap matrix is 5.4500105333E-06.
  Using Symmetric Orthogonalization.

  SCF Guess: Superposition of Atomic Densities via on-the-fly atomic UHF.

  ==> Iterations <==

                        Total Energy        Delta E     RMS |[F,P]|

   @RHF iter SAD:    -0.81414781302352   -8.14148e-01   0.00000e+00 
   @RHF iter   1:    -1.06540718572208   -2.51259e-01   3.74043e-03 DIIS
   @RHF iter   2:    -1.06851248703877   -3.10530e-03   8.41646e-04 DIIS
   @RHF iter   3:    -1.06870067436233   -1.88187e-04   6.81863e-05 DIIS
   @RHF iter   4:    -1.06870168546003   -1.01110e-06   3.05177e-06 DIIS
   @RHF iter   5:    -1.06870168693709   -1.47706e-09   3.26895e-07 DIIS
   @RHF iter   6:    -1.06870168692318    1.39160e-11   1.12030e-08 DIIS
   @RHF iter   7:    -1.06870168693106   -7.87992e-12   2.86207e-10 DIIS
   @RHF iter   8:    -1.06870168693460   -3.53850e-12   2.53654e-11 DIIS
  Energy and wave function converged.


  ==> Post-Iterations <==

    Orbital Energies [Eh]
    ---------------------

    Doubly Occupied:                                                      

       1A     -0.537231  

    Virtual:                                                              

       2A      0.073029     3A      0.077285     4A      0.206688  
       5A      0.346713     6A      0.508959     7A      0.859705  
       8A      1.024158     9A      1.880801    10A      2.033312  
      11A      3.449655    12A      3.465943  

    Final Occupation by Irrep:
              A 
    DOCC [     1 ]

  @RHF Final Energy:    -1.06870168693460

   => Energetics <=

    Nuclear Repulsion Energy =              0.5887752647928965
    One-Electron Energy =                  -2.2404912866341888
    Two-Electron Energy =                   0.5830143349066965
    Total Energy =                         -1.0687016869345958

Computation Completed


Properties will be evaluated at   0.000000,   0.000000,   0.000000 [a0]

Properties computed using the SCF density matrix

  Nuclear Dipole Moment: [e a0]
     X:     0.0000      Y:     0.0000      Z:     0.0000

  Electronic Dipole Moment: [e a0]
     X:     0.0000      Y:     0.0000      Z:     0.0000

  Dipole Moment: [e a0]
     X:     0.0000      Y:     0.0000      Z:     0.0000     Total:     0.0000

  Dipole Moment: [D]
     X:     0.0000      Y:     0.0000      Z:     0.0000     Total:     0.0000


*** tstop() called on adabbott at Sat Sep  7 17:21:42 2019
Module time:
	user time   =       0.20 seconds =       0.00 minutes
	system time =       0.00 seconds =       0.00 minutes
	total time  =          0 seconds =       0.00 minutes
Total time:
	user time   =       0.68 seconds =       0.01 minutes
	system time =       0.01 seconds =       0.00 minutes
	total time  =          1 seconds =       0.02 minutes
 MINTS: Wrapper to libmints.
   by Justin Turney

   Calculation information:
      Number of threads:                 1
      Number of atoms:                   2
      Number of AO shells:              12
      Number of SO shells:              12
      Number of primitives:             12
      Number of atomic orbitals:        12
      Number of basis functions:        12

      Number of irreps:                  1
      Integral cutoff                 0.00e+00
      Number of functions per irrep: [  12 ]

 OEINTS: Overlap, kinetic, potential, dipole, and quadrupole integrals
         stored in file 35.

      Computing two-electron integrals...done
      Computed 3081 non-zero two-electron integrals.
        Stored in file 33.


*** tstart() called on adabbott
*** at Sat Sep  7 17:21:42 2019


 ============================================================================== 
 ============================================================================== 
 ============================================================================== 

                       CEPA   
              Program Written by Ugur Bozkaya,
              Latest Revision June 25, 2014.

 ============================================================================== 
 ============================================================================== 
 ============================================================================== 

	RMS orbital gradient is changed to :     1.00e-07
	MAX orbital gradient is changed to :     1.00e-04
	MO spaces per irreps... 

	IRREP   FC    OCC   VIR  FV 
	==============================
	   A     0     1    11    0
	==============================

	Computing MP2 energy using SCF MOs (Canonical MP2)... 
	============================================================================== 
	Nuclear Repulsion Energy (a.u.)    :     0.58877526479290
	SCF Energy (a.u.)                  :    -1.06870168693460
	REF Energy (a.u.)                  :    -1.06870168693460
	Alpha-Alpha Contribution (a.u.)    :     0.00000000000000
	Alpha-Beta Contribution (a.u.)     :    -0.01732833191395
	Beta-Beta Contribution (a.u.)      :     0.00000000000000
	Scaled_SS Correlation Energy (a.u.):     0.00000000000000
	Scaled_OS Correlation Energy (a.u.):    -0.02079399829674
	SCS-MP2 Total Energy (a.u.)        :    -1.08949568523134
	SOS-MP2 Total Energy (a.u.)        :    -1.09122851842273
	SCSN-MP2 Total Energy (a.u.)       :    -1.06870168693460
	SCS-MP2-VDW Total Energy (a.u.)    :    -1.09088195178445
	SOS-PI-MP2 Total Energy (a.u.)     :    -1.09296135161413
	MP2 Correlation Energy (a.u.)      :    -0.01732833191395
	MP2 Total Energy (a.u.)            :    -1.08603001884855
	============================================================================== 

  
 ============================================================================== 
 ================ Performing CEPA iterations... =============================== 
 ============================================================================== 

  Iter    E_corr           E_total            DE           T2 RMS        
  ----   -------------    ---------------    ----------   ----------    
   1     -0.0232761372    -1.0919778241     -5.95e-03     2.89e-04 
   2     -0.0270918694    -1.0957935564     -3.82e-03     1.21e-04 
   3     -0.0271176760    -1.0958193629     -2.58e-05     1.03e-05 
   4     -0.0271146163    -1.0958163032      3.06e-06     8.23e-07 
   5     -0.0271146867    -1.0958163736     -7.04e-08     7.93e-08 
   6     -0.0271146842    -1.0958163712      2.47e-09     1.11e-08 
   7     -0.0271146813    -1.0958163682      2.92e-09     2.05e-09 
   8     -0.0271146802    -1.0958163671      1.10e-09     3.55e-10 
   9     -0.0271146802    -1.0958163672     -3.21e-11     4.45e-11 

 ============================================================================== 
 ======================== CEPA ITERATIONS ARE CONVERGED ======================= 
 ============================================================================== 

	============================================================================== 
	================ CEPA FINAL RESULTS ========================================== 
	============================================================================== 
	Nuclear Repulsion Energy (a.u.)    :     0.58877526479290
	SCF Energy (a.u.)                  :    -1.06870168693460
	REF Energy (a.u.)                  :    -1.06870168693460
	CEPA(0) Correlation Energy (a.u.)  :    -0.02711468024242
	CEPA(0) Total Energy (a.u.)        :    -1.09581636717702
	============================================================================== 

	Analytic gradient computation is starting...
	Computing response density matrices...
	Computing off-diagonal blocks of GFM...
	Forming independent-pairs...
	Number of independent-pairs:  11
	Computing orbital gradient...
	Computing G_abcd...
	Computing diagonal blocks of GFM...
	Solving orbital Z-vector equations...
	Forming relaxed response density matrices...
	Forming relaxed GFM...
	Writing particle density matrices and GFM to disk...
	Necessary information has been sent to DERIV, which will take care of the rest.

*** tstop() called on adabbott at Sat Sep  7 17:21:42 2019
Module time:
	user time   =       0.01 seconds =       0.00 minutes
	system time =       0.02 seconds =       0.00 minutes
	total time  =          0 seconds =       0.00 minutes
Total time:
	user time   =       0.70 seconds =       0.01 minutes
	system time =       0.03 seconds =       0.00 minutes
	total time  =          1 seconds =       0.02 minutes
  Cartesian Displacement SALCs
  By SALC:
  Number of SALCs: 6, nirreps: A
  Project out translations: False
  Project out rotations: False
	irrep = 0, ncomponent = 1
		0: atom 0, direction x, coef 1.000000
	irrep = 0, ncomponent = 1
		0: atom 0, direction y, coef 1.000000
	irrep = 0, ncomponent = 1
		0: atom 0, direction z, coef 1.000000
	irrep = 0, ncomponent = 1
		0: atom 1, direction x, coef 1.000000
	irrep = 0, ncomponent = 1
		0: atom 1, direction y, coef 1.000000
	irrep = 0, ncomponent = 1
		0: atom 1, direction z, coef 1.000000

  By Atomic Center:
  Number of atomic centers: 2
   Atomic Center 0:
	x component, size = 1
		0: salc 0, irrep 0, coef 1.000000
	y component, size = 1
		0: salc 1, irrep 0, coef 1.000000
	z component, size = 1
		0: salc 2, irrep 0, coef 1.000000
   Atomic Center 1:
	x component, size = 1
		0: salc 3, irrep 0, coef 1.000000
	y component, size = 1
		0: salc 4, irrep 0, coef 1.000000
	z component, size = 1
		0: salc 5, irrep 0, coef 1.000000

    Molecular point group: c1
    Full point group: D_inf_h

    Geometry (in Bohr), charge = 0, multiplicity = 1:

       Center              X                  Y                   Z       
    ------------   -----------------  -----------------  -----------------
         H            0.000000000000     0.000000000000    -0.849220457955
         H            0.000000000000     0.000000000000     0.849220457955

	Presorting MO-basis TPDM.
	Sorting File: MO TPDM (AA|AA) nbuckets = 1
	Starting first half-transformation.
	Sorting half-transformed TPDM.
	First half integral transformation complete.


  -Nuclear Repulsion Energy 1st Derivatives:
     Atom            X                  Y                   Z
    ------   -----------------  -----------------  -----------------
       1        0.000000000000     0.000000000000     0.346656312432
       2        0.000000000000     0.000000000000    -0.346656312432


  -Core Hamiltonian Gradient:
     Atom            X                  Y                   Z
    ------   -----------------  -----------------  -----------------
       1        0.000000000000     0.000000000000    -0.868097143846
       2        0.000000000000     0.000000000000     0.868097143846


  -Lagrangian contribution to gradient:
     Atom            X                  Y                   Z
    ------   -----------------  -----------------  -----------------
       1        0.000000000000     0.000000000000     0.178258398793
       2        0.000000000000     0.000000000000    -0.178258398793


  -Two-electron contribution to gradient:
     Atom            X                  Y                   Z
    ------   -----------------  -----------------  -----------------
       1        0.000000000000     0.000000000000     0.301300598724
       2        0.000000000000     0.000000000000    -0.301300598720


  -Total gradient:
     Atom            X                  Y                   Z
    ------   -----------------  -----------------  -----------------
       1        0.000000000000     0.000000000000    -0.041881833897
       2        0.000000000000     0.000000000000     0.041881833901

   => Loading Basis Set <=

    Name: ANONYMOUS857C8FF6
    Role: ORBITAL
    Keyword: None
    atoms 1-2 entry H          line     5 inputblock s_orb 


    Psi4 stopped on: Saturday, 07 September 2019 05:21PM
    Psi4 wall time for execution: 0:00:00.80

*** Psi4 exiting successfully. Buy a developer a beer!
