
    -----------------------------------------------------------------------
          Psi4: An Open-Source Ab Initio Electronic Structure Package
                               Psi4 1.3.2 release

                         Git: Rev {HEAD} ecbda83 


    R. M. Parrish, L. A. Burns, D. G. A. Smith, A. C. Simmonett,
    A. E. DePrince III, E. G. Hohenstein, U. Bozkaya, A. Yu. Sokolov,
    R. Di Remigio, R. M. Richard, J. F. Gonthier, A. M. James,
    H. R. McAlexander, A. Kumar, M. Saitow, X. Wang, B. P. Pritchard,
    P. Verma, H. F. Schaefer III, K. Patkowski, R. A. King, E. F. Valeev,
    F. A. Evangelista, J. M. Turney, T. D. Crawford, and C. D. Sherrill,
    J. Chem. Theory Comput. 13(7) pp 3185--3197 (2017).
    (doi: 10.1021/acs.jctc.7b00174)


                         Additional Contributions by
    P. Kraus, H. Kruse, M. H. Lechner, M. C. Schieber, R. A. Shaw,
    A. Alenaizan, R. Galvelis, Z. L. Glick, S. Lehtola, and J. P. Misiewicz

    -----------------------------------------------------------------------


    Psi4 started on: Saturday, 07 September 2019 05:21PM

    Process ID: 11421
    Host:       adabbott
    PSIDATADIR: /home/adabbott/anaconda3/envs/autodiff/share/psi4
    Memory:     500.0 MiB
    Threads:    1
    
  ==> Input File <==

--------------------------------------------------------------------------
import psi4
import numpy as np

basis {
assign s_orb
[ s_orb ]
cartesian
****
H     0
S   1   1.00
      0.50000000000      1.0000000000
S   1   1.00
      0.40000000000      1.0000000000
S   1   1.00
      0.30000000000      1.0000000000
S   1   1.00
      0.20000000000      1.0000000000
****
}

molecule h2o {
symmetry c1
units bohr
0 1
H 0.000000000000 0.000000000000 -0.849220457955
H 0.000000000000 0.000000000000  0.849220457955
}

set scf_type pk
set puream false
set mp2_type conv
set e_convergence 10
set d_convergence 10
e, wfn = gradient('hf', return_wfn=True, dertype='gradient')
e, mp2wfn = gradient('mp2', return_wfn=True, dertype='gradient')
e, cepawfn = gradient('lccd', return_wfn=True)

print('HF Gradient')
print(np.asarray(wfn.gradient()))
print('MP2 Gradient')
print(np.asarray(mp2wfn.gradient()))
print('CEPA0 Gradient')
print(np.asarray(cepawfn.gradient()))

mol = wfn.molecule()
bs = wfn.basisset()
basis = psi4.core.BasisSet.build(mol)
mints = psi4.core.MintsHelper(basis)
F = np.asarray(wfn.Fa())
np.save('F2', F)

--------------------------------------------------------------------------
gradient() will perform analytic gradient computation.

*** tstart() called on adabbott
*** at Sat Sep  7 17:21:31 2019

   => Loading Basis Set <=

    Name: ANONYMOUS59EECDCB
    Role: ORBITAL
    Keyword: BASIS
    atoms 1-2 entry H          line     5 inputblock s_orb 


         ---------------------------------------------------------
                                   SCF
               by Justin Turney, Rob Parrish, Andy Simmonett
                          and Daniel G. A. Smith
                              RHF Reference
                        1 Threads,    500 MiB Core
         ---------------------------------------------------------

  ==> Geometry <==

    Molecular point group: c1
    Full point group: D_inf_h

    Geometry (in Bohr), charge = 0, multiplicity = 1:

       Center              X                  Y                   Z               Mass       
    ------------   -----------------  -----------------  -----------------  -----------------
         H            0.000000000000     0.000000000000    -0.849220457955     1.007825032230
         H            0.000000000000     0.000000000000     0.849220457955     1.007825032230

  Running in c1 symmetry.

  Rotational constants: A = ************  B =     41.41314  C =     41.41314 [cm^-1]
  Rotational constants: A = ************  B = 1241534.81138  C = 1241534.81138 [MHz]
  Nuclear repulsion =    0.588775264792897

  Charge       = 0
  Multiplicity = 1
  Electrons    = 2
  Nalpha       = 1
  Nbeta        = 1

  ==> Algorithm <==

  SCF Algorithm Type is PK.
  DIIS enabled.
  MOM disabled.
  Fractional occupation disabled.
  Guess Type is SAD.
  Energy threshold   = 1.00e-10
  Density threshold  = 1.00e-10
  Integral threshold = 0.00e+00

  ==> Primary Basis <==

  Basis Set: ANONYMOUS59EECDCB
    Blend: S_ORB
    Number of shells: 8
    Number of basis function: 8
    Number of Cartesian functions: 8
    Spherical Harmonics?: false
    Max angular momentum: 0

  ==> Pre-Iterations <==

   -------------------------------------------------------
    Irrep   Nso     Nmo     Nalpha   Nbeta   Ndocc  Nsocc
   -------------------------------------------------------
     A          8       8       0       0       0       0
   -------------------------------------------------------
    Total       8       8       1       1       1       0
   -------------------------------------------------------

  ==> Integral Setup <==

  Using in-core PK algorithm.
   Calculation information:
      Number of atoms:                   2
      Number of AO shells:               8
      Number of primitives:              8
      Number of atomic orbitals:         8
      Number of basis functions:         8

      Integral cutoff                 1.00e-12
      Number of threads:                 1

  Performing in-core PK
  Using 1332 doubles for integral storage.
  We computed 666 shell quartets total.
  Whereas there are 666 unique shell quartets.

  ==> DiskJK: Disk-Based J/K Matrices <==

    J tasked:                  Yes
    K tasked:                  Yes
    wK tasked:                  No
    Memory [MiB]:              375
    Schwarz Cutoff:          1E-12

    OpenMP threads:              1

  Minimum eigenvalue in the overlap matrix is 2.3933843387E-05.
  Using Symmetric Orthogonalization.

  SCF Guess: Superposition of Atomic Densities via on-the-fly atomic UHF.

  ==> Iterations <==

                        Total Energy        Delta E     RMS |[F,P]|

   @RHF iter SAD:    -0.80649974889810   -8.06500e-01   0.00000e+00 
   @RHF iter   1:    -1.05853361567199   -2.52034e-01   5.32087e-03 DIIS
   @RHF iter   2:    -1.06074868313435   -2.21507e-03   1.09611e-03 DIIS
   @RHF iter   3:    -1.06085946009664   -1.10777e-04   6.86829e-05 DIIS
   @RHF iter   4:    -1.06085978340036   -3.23304e-07   1.40086e-06 DIIS
   @RHF iter   5:    -1.06085978352666   -1.26304e-10   1.27117e-07 DIIS
   @RHF iter   6:    -1.06085978352754   -8.77964e-13   2.26269e-10 DIIS
   @RHF iter   7:    -1.06085978352767   -1.34115e-13   3.44655e-12 DIIS
  Energy and wave function converged.


  ==> Post-Iterations <==

    Orbital Energies [Eh]
    ---------------------

    Doubly Occupied:                                                      

       1A     -0.530531  

    Virtual:                                                              

       2A      0.178935     3A      0.337632     4A      0.593260  
       5A      1.298510     6A      1.563003     7A      2.865669  
       8A      2.970644  

    Final Occupation by Irrep:
              A 
    DOCC [     1 ]

  @RHF Final Energy:    -1.06085978352767

   => Energetics <=

    Nuclear Repulsion Energy =              0.5887752647928965
    One-Electron Energy =                  -2.2382084108240345
    Two-Electron Energy =                   0.5885733625034657
    Total Energy =                         -1.0608597835276723

Computation Completed


Properties will be evaluated at   0.000000,   0.000000,   0.000000 [a0]

Properties computed using the SCF density matrix

  Nuclear Dipole Moment: [e a0]
     X:     0.0000      Y:     0.0000      Z:     0.0000

  Electronic Dipole Moment: [e a0]
     X:     0.0000      Y:     0.0000      Z:     0.0000

  Dipole Moment: [e a0]
     X:     0.0000      Y:     0.0000      Z:     0.0000     Total:     0.0000

  Dipole Moment: [D]
     X:     0.0000      Y:     0.0000      Z:     0.0000     Total:     0.0000


*** tstop() called on adabbott at Sat Sep  7 17:21:31 2019
Module time:
	user time   =       0.21 seconds =       0.00 minutes
	system time =       0.00 seconds =       0.00 minutes
	total time  =          0 seconds =       0.00 minutes
Total time:
	user time   =       0.21 seconds =       0.00 minutes
	system time =       0.00 seconds =       0.00 minutes
	total time  =          0 seconds =       0.00 minutes

*** tstart() called on adabbott
*** at Sat Sep  7 17:21:31 2019


         ------------------------------------------------------------
                                   SCF GRAD                          
                          Rob Parrish, Justin Turney,                
                       Andy Simmonett, and Alex Sokolov              
         ------------------------------------------------------------

  ==> Geometry <==

    Molecular point group: c1
    Full point group: D_inf_h

    Geometry (in Bohr), charge = 0, multiplicity = 1:

       Center              X                  Y                   Z               Mass       
    ------------   -----------------  -----------------  -----------------  -----------------
         H            0.000000000000     0.000000000000    -0.849220457955     1.007825032230
         H            0.000000000000     0.000000000000     0.849220457955     1.007825032230

  Nuclear repulsion =    0.588775264792897

  ==> Basis Set <==

  Basis Set: ANONYMOUS59EECDCB
    Blend: S_ORB
    Number of shells: 8
    Number of basis function: 8
    Number of Cartesian functions: 8
    Spherical Harmonics?: false
    Max angular momentum: 0

  ==> DirectJKGrad: Integral-Direct SCF Gradients <==

    Gradient:                    1
    J tasked:                  Yes
    K tasked:                  Yes
    wK tasked:                  No
    Integrals threads:           1
    Schwarz Cutoff:          0E+00


  -Total Gradient:
     Atom            X                  Y                   Z
    ------   -----------------  -----------------  -----------------
       1        0.000000000000     0.000000000000    -0.058866931551
       2        0.000000000000     0.000000000000     0.058866931551


*** tstop() called on adabbott at Sat Sep  7 17:21:31 2019
Module time:
	user time   =       0.02 seconds =       0.00 minutes
	system time =       0.00 seconds =       0.00 minutes
	total time  =          0 seconds =       0.00 minutes
Total time:
	user time   =       0.24 seconds =       0.00 minutes
	system time =       0.00 seconds =       0.00 minutes
	total time  =          0 seconds =       0.00 minutes
gradient() will perform analytic gradient computation.

*** tstart() called on adabbott
*** at Sat Sep  7 17:21:31 2019

   => Loading Basis Set <=

    Name: ANONYMOUS59EECDCB
    Role: ORBITAL
    Keyword: BASIS
    atoms 1-2 entry H          line     5 inputblock s_orb 


         ---------------------------------------------------------
                                   SCF
               by Justin Turney, Rob Parrish, Andy Simmonett
                          and Daniel G. A. Smith
                              RHF Reference
                        1 Threads,    500 MiB Core
         ---------------------------------------------------------

  ==> Geometry <==

    Molecular point group: c1
    Full point group: D_inf_h

    Geometry (in Bohr), charge = 0, multiplicity = 1:

       Center              X                  Y                   Z               Mass       
    ------------   -----------------  -----------------  -----------------  -----------------
         H            0.000000000000     0.000000000000    -0.849220457955     1.007825032230
         H            0.000000000000     0.000000000000     0.849220457955     1.007825032230

  Running in c1 symmetry.

  Rotational constants: A = ************  B =     41.41314  C =     41.41314 [cm^-1]
  Rotational constants: A = ************  B = 1241534.81138  C = 1241534.81138 [MHz]
  Nuclear repulsion =    0.588775264792897

  Charge       = 0
  Multiplicity = 1
  Electrons    = 2
  Nalpha       = 1
  Nbeta        = 1

  ==> Algorithm <==

  SCF Algorithm Type is PK.
  DIIS enabled.
  MOM disabled.
  Fractional occupation disabled.
  Guess Type is SAD.
  Energy threshold   = 1.00e-10
  Density threshold  = 1.00e-10
  Integral threshold = 0.00e+00

  ==> Primary Basis <==

  Basis Set: ANONYMOUS59EECDCB
    Blend: S_ORB
    Number of shells: 8
    Number of basis function: 8
    Number of Cartesian functions: 8
    Spherical Harmonics?: false
    Max angular momentum: 0

  ==> Pre-Iterations <==

   -------------------------------------------------------
    Irrep   Nso     Nmo     Nalpha   Nbeta   Ndocc  Nsocc
   -------------------------------------------------------
     A          8       8       0       0       0       0
   -------------------------------------------------------
    Total       8       8       1       1       1       0
   -------------------------------------------------------

  ==> Integral Setup <==

  Using in-core PK algorithm.
   Calculation information:
      Number of atoms:                   2
      Number of AO shells:               8
      Number of primitives:              8
      Number of atomic orbitals:         8
      Number of basis functions:         8

      Integral cutoff                 1.00e-12
      Number of threads:                 1

  Performing in-core PK
  Using 1332 doubles for integral storage.
  We computed 666 shell quartets total.
  Whereas there are 666 unique shell quartets.

  ==> DiskJK: Disk-Based J/K Matrices <==

    J tasked:                  Yes
    K tasked:                  Yes
    wK tasked:                  No
    Memory [MiB]:              375
    Schwarz Cutoff:          1E-12

    OpenMP threads:              1

  Minimum eigenvalue in the overlap matrix is 2.3933843387E-05.
  Using Symmetric Orthogonalization.

  SCF Guess: Superposition of Atomic Densities via on-the-fly atomic UHF.

  ==> Iterations <==

                        Total Energy        Delta E     RMS |[F,P]|

   @RHF iter SAD:    -0.80649974889810   -8.06500e-01   0.00000e+00 
   @RHF iter   1:    -1.05853361567199   -2.52034e-01   5.32087e-03 DIIS
   @RHF iter   2:    -1.06074868313435   -2.21507e-03   1.09611e-03 DIIS
   @RHF iter   3:    -1.06085946009664   -1.10777e-04   6.86829e-05 DIIS
   @RHF iter   4:    -1.06085978340036   -3.23304e-07   1.40086e-06 DIIS
   @RHF iter   5:    -1.06085978352666   -1.26304e-10   1.27117e-07 DIIS
   @RHF iter   6:    -1.06085978352744   -7.81597e-13   2.26208e-10 DIIS
   @RHF iter   7:    -1.06085978352770   -2.55795e-13   1.63130e-12 DIIS
  Energy and wave function converged.


  ==> Post-Iterations <==

    Orbital Energies [Eh]
    ---------------------

    Doubly Occupied:                                                      

       1A     -0.530531  

    Virtual:                                                              

       2A      0.178935     3A      0.337632     4A      0.593260  
       5A      1.298510     6A      1.563003     7A      2.865669  
       8A      2.970644  

    Final Occupation by Irrep:
              A 
    DOCC [     1 ]

  @RHF Final Energy:    -1.06085978352770

   => Energetics <=

    Nuclear Repulsion Energy =              0.5887752647928965
    One-Electron Energy =                  -2.2382084108237228
    Two-Electron Energy =                   0.5885733625031286
    Total Energy =                         -1.0608597835276976

Computation Completed


Properties will be evaluated at   0.000000,   0.000000,   0.000000 [a0]

Properties computed using the SCF density matrix

  Nuclear Dipole Moment: [e a0]
     X:     0.0000      Y:     0.0000      Z:     0.0000

  Electronic Dipole Moment: [e a0]
     X:     0.0000      Y:     0.0000      Z:     0.0000

  Dipole Moment: [e a0]
     X:     0.0000      Y:     0.0000      Z:     0.0000     Total:     0.0000

  Dipole Moment: [D]
     X:     0.0000      Y:     0.0000      Z:     0.0000     Total:     0.0000


*** tstop() called on adabbott at Sat Sep  7 17:21:31 2019
Module time:
	user time   =       0.19 seconds =       0.00 minutes
	system time =       0.01 seconds =       0.00 minutes
	total time  =          0 seconds =       0.00 minutes
Total time:
	user time   =       0.44 seconds =       0.01 minutes
	system time =       0.01 seconds =       0.00 minutes
	total time  =          0 seconds =       0.00 minutes
 MINTS: Wrapper to libmints.
   by Justin Turney

   Calculation information:
      Number of threads:                 1
      Number of atoms:                   2
      Number of AO shells:               8
      Number of SO shells:               8
      Number of primitives:              8
      Number of atomic orbitals:         8
      Number of basis functions:         8

      Number of irreps:                  1
      Integral cutoff                 0.00e+00
      Number of functions per irrep: [   8 ]

 OEINTS: Overlap, kinetic, potential, dipole, and quadrupole integrals
         stored in file 35.

      Computing two-electron integrals...done
      Computed 666 non-zero two-electron integrals.
        Stored in file 33.


*** tstart() called on adabbott
*** at Sat Sep  7 17:21:31 2019



  Module OCC Options:
  ----------------------------------------------------------------------------
  ACTIVE                        => (empty)         !
  BASIS_RELATIVISTIC            => (empty)         !
  BENCH                         => (empty)         !
  CACHELEVEL                    => (empty)         !
  CCL_ENERGY                    => (empty)         !
  CC_DIIS_MAX_VECS              => (empty)         !
  CC_DIIS_MIN_VECS              => (empty)         !
  CC_MAXITER                    => (empty)         !
  CC_TYPE                       => (empty)         !
  CEPA_OS_SCALE                 => (empty)         !
  CEPA_SOS_SCALE                => (empty)         !
  CEPA_SS_SCALE                 => (empty)         !
  CEPA_TYPE                     => (empty)         !
  CI_TYPE                       => (empty)         !
  CUBEPROP_BASIS_FUNCTIONS      => (empty)         !
  CUBEPROP_FILEPATH             => (empty)         !
  CUBEPROP_ISOCONTOUR_THRESHOLD => (empty)         !
  CUBEPROP_ORBITALS             => (empty)         !
  CUBEPROP_TASKS                => (empty)         !
  CUBIC_BASIS_TOLERANCE         => (empty)         !
  CUBIC_BLOCK_MAX_POINTS        => (empty)         !
  CUBIC_GRID_OVERAGE            => (empty)         !
  CUBIC_GRID_SPACING            => (empty)         !
  CUTOFF                        => (empty)         !
  DEBUG                         => (empty)         !
  DERTYPE                       => FIRST           !
  DF_BASIS_CC                   => (empty)         !
  DIE_IF_NOT_CONVERGED          => (empty)         !
  DKH_ORDER                     => (empty)         !
  DOCC                          => (empty)         !
  DO_DIIS                       => (empty)         !
  DO_LEVEL_SHIFT                => (empty)         !
  DO_SCS                        => FALSE           !
  DO_SOS                        => FALSE           !
  E3_SCALE                      => (empty)         !
  EA_POLES                      => (empty)         !
  EKT_EA                        => (empty)         !
  EKT_IP                        => (empty)         !
  EP_EA_POLES                   => (empty)         !
  EP_IP_POLES                   => (empty)         !
  EP_MAXITER                    => (empty)         !
  EXTERNAL_POTENTIAL_SYMMETRY   => (empty)         !
  E_CONVERGENCE                 => 1e-10           !
  FREEZE_CORE                   => (empty)         !
  FROZEN_DOCC                   => (empty)         !
  FROZEN_UOCC                   => (empty)         !
  INTEGRAL_PACKAGE              => (empty)         !
  IP_POLES                      => (empty)         !
  LEVEL_SHIFT                   => (empty)         !
  LINEQ_SOLVER                  => (empty)         !
  LITERAL_CFOUR                 => (empty)         !
  MAT_NUM_COLUMN_PRINT          => (empty)         !
  MAX_MOGRAD_CONVERGENCE        => (empty)         !
  MOGRAD_DAMPING                => (empty)         !
  MOLDEN_WITH_VIRTUAL           => (empty)         !
  MO_DIIS_NUM_VECS              => (empty)         !
  MO_MAXITER                    => (empty)         !
  MO_READ                       => (empty)         !
  MO_STEP_MAX                   => (empty)         !
  MO_WRITE                      => (empty)         !
  MP2_OS_SCALE                  => (empty)         !
  MP2_SOS_SCALE                 => (empty)         !
  MP2_SOS_SCALE2                => (empty)         !
  MP2_SS_SCALE                  => (empty)         !
  MP2_TYPE                      => CONV            !
  MP_TYPE                       => (empty)         !
  NAT_ORBS                      => (empty)         !
  NUM_FROZEN_DOCC               => (empty)         !
  NUM_FROZEN_UOCC               => (empty)         !
  NUM_GPUS                      => (empty)         !
  OCC_ORBS_PRINT                => (empty)         !
  OEPROP                        => (empty)         !
  OPT_METHOD                    => (empty)         !
  ORB_OPT                       => FALSE           !
  ORB_RESP_SOLVER               => (empty)         !
  ORTH_TYPE                     => (empty)         !
  PCG_BETA_TYPE                 => (empty)         !
  PCG_CONVERGENCE               => (empty)         !
  PCG_MAXITER                   => (empty)         !
  PCM                           => (empty)         !
  PRINT                         => (empty)         !
  PRINT_NOONS                   => (empty)         !
  PROPERTIES                    => (empty)         !
  PROPERTIES_ORIGIN             => (empty)         !
  PUREAM                        => FALSE           !
  QC_MODULE                     => (empty)         !
  RAS1                          => (empty)         !
  RAS2                          => (empty)         !
  RAS3                          => (empty)         !
  RAS4                          => (empty)         !
  RELATIVISTIC                  => (empty)         !
  RELAXED                       => (empty)         !
  RESTRICTED_DOCC               => (empty)         !
  RESTRICTED_UOCC               => (empty)         !
  RMS_MOGRAD_CONVERGENCE        => (empty)         !
  R_CONVERGENCE                 => (empty)         !
  SCF_TYPE                      => PK              !
  SCS_TYPE                      => (empty)         !
  SOCC                          => (empty)         !
  SOS_TYPE                      => (empty)         !
  SYMMETRIZE                    => (empty)         !
  TPDM_ABCD_TYPE                => (empty)         !
  WFN                           => (empty)         !
  WFN_TYPE                      => OMP2            !
  WRITER_FILE_LABEL             => (empty)         !


 ============================================================================== 
 ============================================================================== 
 ============================================================================== 

                       MP2   
              Program Written by Ugur Bozkaya,
              Latest Revision June 25, 2014.

 ============================================================================== 
 ============================================================================== 
 ============================================================================== 

	RMS orbital gradient is changed to :     1.00e-07
	MAX orbital gradient is changed to :     1.00e-04
	MO spaces per irreps... 

	IRREP   FC    OCC   VIR  FV 
	==============================
	   A     0     1     7    0
	==============================

	Memory is    524 MB 
	Cost of iabc is      0 MB 
	Cost of abcd is      0 MB 
	Switching to the incore algorithm for iabc..
	Switching to the incore algorithm for abcd..

	Computing MP2 energy using SCF MOs (Canonical MP2)... 
	============================================================================== 
	Nuclear Repulsion Energy (a.u.)    :     0.58877526479290
	SCF Energy (a.u.)                  :    -1.06085978352770
	REF Energy (a.u.)                  :    -1.06085978352770
	Alpha-Alpha Contribution (a.u.)    :     0.00000000000000
	Alpha-Beta Contribution (a.u.)     :    -0.01703780028848
	Beta-Beta Contribution (a.u.)      :     0.00000000000000
	Scaled_SS Correlation Energy (a.u.):     0.00000000000000
	Scaled_OS Correlation Energy (a.u.):    -0.02044536034617
	SCS-MP2 Total Energy (a.u.)        :    -1.08130514387387
	SOS-MP2 Total Energy (a.u.)        :    -1.06085978352770
	SCSN-MP2 Total Energy (a.u.)       :    -1.06085978352770
	SCS-MP2-VDW Total Energy (a.u.)    :    -1.08266816789695
	SOS-PI-MP2 Total Energy (a.u.)     :    -1.08471270393157
	MP2 Correlation Energy (a.u.)      :    -0.01703780028848
	MP2 Total Energy (a.u.)            :    -1.07789758381618
	============================================================================== 
	Analytic gradient computation is starting...
	Computing response density matrices...
	Computing off-diagonal blocks of GFM...
	Forming independent-pairs...
	Number of independent-pairs:   7
	Computing orbital gradient...
	Computing diagonal blocks of GFM...
	Solving orbital Z-vector equations...
	Forming relaxed response density matrices...
	Forming relaxed GFM...
	Writing particle density matrices and GFM to disk...
	Necessary information has been sent to DERIV, which will take care of the rest.

*** tstop() called on adabbott at Sat Sep  7 17:21:31 2019
Module time:
	user time   =       0.01 seconds =       0.00 minutes
	system time =       0.00 seconds =       0.00 minutes
	total time  =          0 seconds =       0.00 minutes
Total time:
	user time   =       0.46 seconds =       0.01 minutes
	system time =       0.01 seconds =       0.00 minutes
	total time  =          0 seconds =       0.00 minutes
  Cartesian Displacement SALCs
  By SALC:
  Number of SALCs: 6, nirreps: A
  Project out translations: False
  Project out rotations: False
	irrep = 0, ncomponent = 1
		0: atom 0, direction x, coef 1.000000
	irrep = 0, ncomponent = 1
		0: atom 0, direction y, coef 1.000000
	irrep = 0, ncomponent = 1
		0: atom 0, direction z, coef 1.000000
	irrep = 0, ncomponent = 1
		0: atom 1, direction x, coef 1.000000
	irrep = 0, ncomponent = 1
		0: atom 1, direction y, coef 1.000000
	irrep = 0, ncomponent = 1
		0: atom 1, direction z, coef 1.000000

  By Atomic Center:
  Number of atomic centers: 2
   Atomic Center 0:
	x component, size = 1
		0: salc 0, irrep 0, coef 1.000000
	y component, size = 1
		0: salc 1, irrep 0, coef 1.000000
	z component, size = 1
		0: salc 2, irrep 0, coef 1.000000
   Atomic Center 1:
	x component, size = 1
		0: salc 3, irrep 0, coef 1.000000
	y component, size = 1
		0: salc 4, irrep 0, coef 1.000000
	z component, size = 1
		0: salc 5, irrep 0, coef 1.000000

    Molecular point group: c1
    Full point group: D_inf_h

    Geometry (in Bohr), charge = 0, multiplicity = 1:

       Center              X                  Y                   Z       
    ------------   -----------------  -----------------  -----------------
         H            0.000000000000     0.000000000000    -0.849220457955
         H            0.000000000000     0.000000000000     0.849220457955

	Presorting MO-basis TPDM.
	Sorting File: MO TPDM (AA|AA) nbuckets = 1
	Starting first half-transformation.
	Sorting half-transformed TPDM.
	First half integral transformation complete.


  -Nuclear Repulsion Energy 1st Derivatives:
     Atom            X                  Y                   Z
    ------   -----------------  -----------------  -----------------
       1        0.000000000000     0.000000000000     0.346656312432
       2        0.000000000000     0.000000000000    -0.346656312432


  -Core Hamiltonian Gradient:
     Atom            X                  Y                   Z
    ------   -----------------  -----------------  -----------------
       1        0.000000000000     0.000000000000    -0.903294111534
       2        0.000000000000     0.000000000000     0.903294111534


  -Lagrangian contribution to gradient:
     Atom            X                  Y                   Z
    ------   -----------------  -----------------  -----------------
       1        0.000000000000     0.000000000000     0.195249890462
       2        0.000000000000     0.000000000000    -0.195249890462


  -Two-electron contribution to gradient:
     Atom            X                  Y                   Z
    ------   -----------------  -----------------  -----------------
       1        0.000000000000     0.000000000000     0.308497716105
       2        0.000000000000     0.000000000000    -0.308497716105


  -Total gradient:
     Atom            X                  Y                   Z
    ------   -----------------  -----------------  -----------------
       1        0.000000000000     0.000000000000    -0.052890192534
       2        0.000000000000     0.000000000000     0.052890192534

gradient() will perform analytic gradient computation.

*** tstart() called on adabbott
*** at Sat Sep  7 17:21:31 2019

   => Loading Basis Set <=

    Name: ANONYMOUS59EECDCB
    Role: ORBITAL
    Keyword: BASIS
    atoms 1-2 entry H          line     5 inputblock s_orb 


         ---------------------------------------------------------
                                   SCF
               by Justin Turney, Rob Parrish, Andy Simmonett
                          and Daniel G. A. Smith
                              RHF Reference
                        1 Threads,    500 MiB Core
         ---------------------------------------------------------

  ==> Geometry <==

    Molecular point group: c1
    Full point group: D_inf_h

    Geometry (in Bohr), charge = 0, multiplicity = 1:

       Center              X                  Y                   Z               Mass       
    ------------   -----------------  -----------------  -----------------  -----------------
         H            0.000000000000     0.000000000000    -0.849220457955     1.007825032230
         H            0.000000000000     0.000000000000     0.849220457955     1.007825032230

  Running in c1 symmetry.

  Rotational constants: A = ************  B =     41.41314  C =     41.41314 [cm^-1]
  Rotational constants: A = ************  B = 1241534.81138  C = 1241534.81138 [MHz]
  Nuclear repulsion =    0.588775264792897

  Charge       = 0
  Multiplicity = 1
  Electrons    = 2
  Nalpha       = 1
  Nbeta        = 1

  ==> Algorithm <==

  SCF Algorithm Type is PK.
  DIIS enabled.
  MOM disabled.
  Fractional occupation disabled.
  Guess Type is SAD.
  Energy threshold   = 1.00e-10
  Density threshold  = 1.00e-10
  Integral threshold = 0.00e+00

  ==> Primary Basis <==

  Basis Set: ANONYMOUS59EECDCB
    Blend: S_ORB
    Number of shells: 8
    Number of basis function: 8
    Number of Cartesian functions: 8
    Spherical Harmonics?: false
    Max angular momentum: 0

  ==> Pre-Iterations <==

   -------------------------------------------------------
    Irrep   Nso     Nmo     Nalpha   Nbeta   Ndocc  Nsocc
   -------------------------------------------------------
     A          8       8       0       0       0       0
   -------------------------------------------------------
    Total       8       8       1       1       1       0
   -------------------------------------------------------

  ==> Integral Setup <==

  Using in-core PK algorithm.
   Calculation information:
      Number of atoms:                   2
      Number of AO shells:               8
      Number of primitives:              8
      Number of atomic orbitals:         8
      Number of basis functions:         8

      Integral cutoff                 1.00e-12
      Number of threads:                 1

  Performing in-core PK
  Using 1332 doubles for integral storage.
  We computed 666 shell quartets total.
  Whereas there are 666 unique shell quartets.

  ==> DiskJK: Disk-Based J/K Matrices <==

    J tasked:                  Yes
    K tasked:                  Yes
    wK tasked:                  No
    Memory [MiB]:              375
    Schwarz Cutoff:          1E-12

    OpenMP threads:              1

  Minimum eigenvalue in the overlap matrix is 2.3933843387E-05.
  Using Symmetric Orthogonalization.

  SCF Guess: Superposition of Atomic Densities via on-the-fly atomic UHF.

  ==> Iterations <==

                        Total Energy        Delta E     RMS |[F,P]|

   @RHF iter SAD:    -0.80649974889810   -8.06500e-01   0.00000e+00 
   @RHF iter   1:    -1.05853361567193   -2.52034e-01   5.32087e-03 DIIS
   @RHF iter   2:    -1.06074868313451   -2.21507e-03   1.09611e-03 DIIS
   @RHF iter   3:    -1.06085946009657   -1.10777e-04   6.86829e-05 DIIS
   @RHF iter   4:    -1.06085978340060   -3.23304e-07   1.40086e-06 DIIS
   @RHF iter   5:    -1.06085978352655   -1.25952e-10   1.27117e-07 DIIS
   @RHF iter   6:    -1.06085978352767   -1.12532e-12   2.26393e-10 DIIS
   @RHF iter   7:    -1.06085978352775   -7.99361e-14   2.84980e-12 DIIS
  Energy and wave function converged.


  ==> Post-Iterations <==

    Orbital Energies [Eh]
    ---------------------

    Doubly Occupied:                                                      

       1A     -0.530531  

    Virtual:                                                              

       2A      0.178935     3A      0.337632     4A      0.593260  
       5A      1.298510     6A      1.563003     7A      2.865669  
       8A      2.970644  

    Final Occupation by Irrep:
              A 
    DOCC [     1 ]

  @RHF Final Energy:    -1.06085978352775

   => Energetics <=

    Nuclear Repulsion Energy =              0.5887752647928965
    One-Electron Energy =                  -2.2382084108242530
    Two-Electron Energy =                   0.5885733625036016
    Total Energy =                         -1.0608597835277549

Computation Completed


Properties will be evaluated at   0.000000,   0.000000,   0.000000 [a0]

Properties computed using the SCF density matrix

  Nuclear Dipole Moment: [e a0]
     X:     0.0000      Y:     0.0000      Z:     0.0000

  Electronic Dipole Moment: [e a0]
     X:     0.0000      Y:     0.0000      Z:    -0.0000

  Dipole Moment: [e a0]
     X:     0.0000      Y:     0.0000      Z:    -0.0000     Total:     0.0000

  Dipole Moment: [D]
     X:     0.0000      Y:     0.0000      Z:    -0.0000     Total:     0.0000


*** tstop() called on adabbott at Sat Sep  7 17:21:32 2019
Module time:
	user time   =       0.20 seconds =       0.00 minutes
	system time =       0.00 seconds =       0.00 minutes
	total time  =          1 seconds =       0.02 minutes
Total time:
	user time   =       0.67 seconds =       0.01 minutes
	system time =       0.01 seconds =       0.00 minutes
	total time  =          1 seconds =       0.02 minutes
 MINTS: Wrapper to libmints.
   by Justin Turney

   Calculation information:
      Number of threads:                 1
      Number of atoms:                   2
      Number of AO shells:               8
      Number of SO shells:               8
      Number of primitives:              8
      Number of atomic orbitals:         8
      Number of basis functions:         8

      Number of irreps:                  1
      Integral cutoff                 0.00e+00
      Number of functions per irrep: [   8 ]

 OEINTS: Overlap, kinetic, potential, dipole, and quadrupole integrals
         stored in file 35.

      Computing two-electron integrals...done
      Computed 666 non-zero two-electron integrals.
        Stored in file 33.


*** tstart() called on adabbott
*** at Sat Sep  7 17:21:32 2019



  Module OCC Options:
  ----------------------------------------------------------------------------
  ACTIVE                        => (empty)         !
  BASIS_RELATIVISTIC            => (empty)         !
  BENCH                         => (empty)         !
  CACHELEVEL                    => (empty)         !
  CCL_ENERGY                    => (empty)         !
  CC_DIIS_MAX_VECS              => (empty)         !
  CC_DIIS_MIN_VECS              => (empty)         !
  CC_MAXITER                    => (empty)         !
  CC_TYPE                       => (empty)         !
  CEPA_OS_SCALE                 => (empty)         !
  CEPA_SOS_SCALE                => (empty)         !
  CEPA_SS_SCALE                 => (empty)         !
  CEPA_TYPE                     => (empty)         !
  CI_TYPE                       => (empty)         !
  CUBEPROP_BASIS_FUNCTIONS      => (empty)         !
  CUBEPROP_FILEPATH             => (empty)         !
  CUBEPROP_ISOCONTOUR_THRESHOLD => (empty)         !
  CUBEPROP_ORBITALS             => (empty)         !
  CUBEPROP_TASKS                => (empty)         !
  CUBIC_BASIS_TOLERANCE         => (empty)         !
  CUBIC_BLOCK_MAX_POINTS        => (empty)         !
  CUBIC_GRID_OVERAGE            => (empty)         !
  CUBIC_GRID_SPACING            => (empty)         !
  CUTOFF                        => (empty)         !
  DEBUG                         => (empty)         !
  DERTYPE                       => FIRST           !
  DF_BASIS_CC                   => (empty)         !
  DIE_IF_NOT_CONVERGED          => (empty)         !
  DKH_ORDER                     => (empty)         !
  DOCC                          => (empty)         !
  DO_DIIS                       => (empty)         !
  DO_LEVEL_SHIFT                => (empty)         !
  DO_SCS                        => FALSE           !
  DO_SOS                        => FALSE           !
  E3_SCALE                      => (empty)         !
  EA_POLES                      => (empty)         !
  EKT_EA                        => (empty)         !
  EKT_IP                        => (empty)         !
  EP_EA_POLES                   => (empty)         !
  EP_IP_POLES                   => (empty)         !
  EP_MAXITER                    => (empty)         !
  EXTERNAL_POTENTIAL_SYMMETRY   => (empty)         !
  E_CONVERGENCE                 => 1e-10           !
  FREEZE_CORE                   => (empty)         !
  FROZEN_DOCC                   => (empty)         !
  FROZEN_UOCC                   => (empty)         !
  INTEGRAL_PACKAGE              => (empty)         !
  IP_POLES                      => (empty)         !
  LEVEL_SHIFT                   => (empty)         !
  LINEQ_SOLVER                  => (empty)         !
  LITERAL_CFOUR                 => (empty)         !
  MAT_NUM_COLUMN_PRINT          => (empty)         !
  MAX_MOGRAD_CONVERGENCE        => (empty)         !
  MOGRAD_DAMPING                => (empty)         !
  MOLDEN_WITH_VIRTUAL           => (empty)         !
  MO_DIIS_NUM_VECS              => (empty)         !
  MO_MAXITER                    => (empty)         !
  MO_READ                       => (empty)         !
  MO_STEP_MAX                   => (empty)         !
  MO_WRITE                      => (empty)         !
  MP2_OS_SCALE                  => (empty)         !
  MP2_SOS_SCALE                 => (empty)         !
  MP2_SOS_SCALE2                => (empty)         !
  MP2_SS_SCALE                  => (empty)         !
  MP2_TYPE                      => CONV            !
  MP_TYPE                       => (empty)         !
  NAT_ORBS                      => (empty)         !
  NUM_FROZEN_DOCC               => (empty)         !
  NUM_FROZEN_UOCC               => (empty)         !
  NUM_GPUS                      => (empty)         !
  OCC_ORBS_PRINT                => (empty)         !
  OEPROP                        => (empty)         !
  OPT_METHOD                    => (empty)         !
  ORB_OPT                       => FALSE           !
  ORB_RESP_SOLVER               => (empty)         !
  ORTH_TYPE                     => (empty)         !
  PCG_BETA_TYPE                 => (empty)         !
  PCG_CONVERGENCE               => (empty)         !
  PCG_MAXITER                   => (empty)         !
  PCM                           => (empty)         !
  PRINT                         => (empty)         !
  PRINT_NOONS                   => (empty)         !
  PROPERTIES                    => (empty)         !
  PROPERTIES_ORIGIN             => (empty)         !
  PUREAM                        => FALSE           !
  QC_MODULE                     => (empty)         !
  RAS1                          => (empty)         !
  RAS2                          => (empty)         !
  RAS3                          => (empty)         !
  RAS4                          => (empty)         !
  RELATIVISTIC                  => (empty)         !
  RELAXED                       => (empty)         !
  RESTRICTED_DOCC               => (empty)         !
  RESTRICTED_UOCC               => (empty)         !
  RMS_MOGRAD_CONVERGENCE        => (empty)         !
  R_CONVERGENCE                 => (empty)         !
  SCF_TYPE                      => PK              !
  SCS_TYPE                      => (empty)         !
  SOCC                          => (empty)         !
  SOS_TYPE                      => (empty)         !
  SYMMETRIZE                    => (empty)         !
  TPDM_ABCD_TYPE                => (empty)         !
  WFN                           => (empty)         !
  WFN_TYPE                      => OCEPA           !
  WRITER_FILE_LABEL             => (empty)         !


 ============================================================================== 
 ============================================================================== 
 ============================================================================== 

                       CEPA   
              Program Written by Ugur Bozkaya,
              Latest Revision June 25, 2014.

 ============================================================================== 
 ============================================================================== 
 ============================================================================== 

	RMS orbital gradient is changed to :     1.00e-07
	MAX orbital gradient is changed to :     1.00e-04
	MO spaces per irreps... 

	IRREP   FC    OCC   VIR  FV 
	==============================
	   A     0     1     7    0
	==============================

	Computing MP2 energy using SCF MOs (Canonical MP2)... 
	============================================================================== 
	Nuclear Repulsion Energy (a.u.)    :     0.58877526479290
	SCF Energy (a.u.)                  :    -1.06085978352775
	REF Energy (a.u.)                  :    -1.06085978352775
	Alpha-Alpha Contribution (a.u.)    :     0.00000000000000
	Alpha-Beta Contribution (a.u.)     :    -0.01703780028829
	Beta-Beta Contribution (a.u.)      :     0.00000000000000
	Scaled_SS Correlation Energy (a.u.):     0.00000000000000
	Scaled_OS Correlation Energy (a.u.):    -0.02044536034595
	SCS-MP2 Total Energy (a.u.)        :    -1.08130514387370
	SOS-MP2 Total Energy (a.u.)        :    -1.08300892390253
	SCSN-MP2 Total Energy (a.u.)       :    -1.06085978352775
	SCS-MP2-VDW Total Energy (a.u.)    :    -1.08266816789676
	SOS-PI-MP2 Total Energy (a.u.)     :    -1.08471270393136
	MP2 Correlation Energy (a.u.)      :    -0.01703780028829
	MP2 Total Energy (a.u.)            :    -1.07789758381604
	============================================================================== 

  
 ============================================================================== 
 ================ Performing CEPA iterations... =============================== 
 ============================================================================== 

  Iter    E_corr           E_total            DE           T2 RMS        
  ----   -------------    ---------------    ----------   ----------    
   1     -0.0229762590    -1.0838360425     -5.94e-03     7.13e-04 
   2     -0.0268249027    -1.0876846862     -3.85e-03     3.00e-04 
   3     -0.0268461749    -1.0877059584     -2.13e-05     2.44e-05 
   4     -0.0268433591    -1.0877031427      2.82e-06     1.86e-06 
   5     -0.0268434169    -1.0877032004     -5.78e-08     1.20e-07 
   6     -0.0268434074    -1.0877031909      9.46e-09     1.15e-08 
   7     -0.0268434063    -1.0877031898      1.12e-09     1.33e-09 
   8     -0.0268434061    -1.0877031896      2.15e-10     1.84e-10 
   9     -0.0268434060    -1.0877031896      6.17e-11     1.45e-11 

 ============================================================================== 
 ======================== CEPA ITERATIONS ARE CONVERGED ======================= 
 ============================================================================== 

	============================================================================== 
	================ CEPA FINAL RESULTS ========================================== 
	============================================================================== 
	Nuclear Repulsion Energy (a.u.)    :     0.58877526479290
	SCF Energy (a.u.)                  :    -1.06085978352775
	REF Energy (a.u.)                  :    -1.06085978352775
	CEPA(0) Correlation Energy (a.u.)  :    -0.02684340602564
	CEPA(0) Total Energy (a.u.)        :    -1.08770318955339
	============================================================================== 

	Analytic gradient computation is starting...
	Computing response density matrices...
	Computing off-diagonal blocks of GFM...
	Forming independent-pairs...
	Number of independent-pairs:   7
	Computing orbital gradient...
	Computing G_abcd...
	Computing diagonal blocks of GFM...
	Solving orbital Z-vector equations...
	Forming relaxed response density matrices...
	Forming relaxed GFM...
	Writing particle density matrices and GFM to disk...
	Necessary information has been sent to DERIV, which will take care of the rest.

*** tstop() called on adabbott at Sat Sep  7 17:21:32 2019
Module time:
	user time   =       0.01 seconds =       0.00 minutes
	system time =       0.01 seconds =       0.00 minutes
	total time  =          0 seconds =       0.00 minutes
Total time:
	user time   =       0.69 seconds =       0.01 minutes
	system time =       0.02 seconds =       0.00 minutes
	total time  =          1 seconds =       0.02 minutes
  Cartesian Displacement SALCs
  By SALC:
  Number of SALCs: 6, nirreps: A
  Project out translations: False
  Project out rotations: False
	irrep = 0, ncomponent = 1
		0: atom 0, direction x, coef 1.000000
	irrep = 0, ncomponent = 1
		0: atom 0, direction y, coef 1.000000
	irrep = 0, ncomponent = 1
		0: atom 0, direction z, coef 1.000000
	irrep = 0, ncomponent = 1
		0: atom 1, direction x, coef 1.000000
	irrep = 0, ncomponent = 1
		0: atom 1, direction y, coef 1.000000
	irrep = 0, ncomponent = 1
		0: atom 1, direction z, coef 1.000000

  By Atomic Center:
  Number of atomic centers: 2
   Atomic Center 0:
	x component, size = 1
		0: salc 0, irrep 0, coef 1.000000
	y component, size = 1
		0: salc 1, irrep 0, coef 1.000000
	z component, size = 1
		0: salc 2, irrep 0, coef 1.000000
   Atomic Center 1:
	x component, size = 1
		0: salc 3, irrep 0, coef 1.000000
	y component, size = 1
		0: salc 4, irrep 0, coef 1.000000
	z component, size = 1
		0: salc 5, irrep 0, coef 1.000000

    Molecular point group: c1
    Full point group: D_inf_h

    Geometry (in Bohr), charge = 0, multiplicity = 1:

       Center              X                  Y                   Z       
    ------------   -----------------  -----------------  -----------------
         H            0.000000000000     0.000000000000    -0.849220457955
         H            0.000000000000     0.000000000000     0.849220457955

	Presorting MO-basis TPDM.
	Sorting File: MO TPDM (AA|AA) nbuckets = 1
	Starting first half-transformation.
	Sorting half-transformed TPDM.
	First half integral transformation complete.


  -Nuclear Repulsion Energy 1st Derivatives:
     Atom            X                  Y                   Z
    ------   -----------------  -----------------  -----------------
       1        0.000000000000     0.000000000000     0.346656312432
       2        0.000000000000     0.000000000000    -0.346656312432


  -Core Hamiltonian Gradient:
     Atom            X                  Y                   Z
    ------   -----------------  -----------------  -----------------
       1        0.000000000000     0.000000000000    -0.878813269795
       2        0.000000000000     0.000000000000     0.878813269795


  -Lagrangian contribution to gradient:
     Atom            X                  Y                   Z
    ------   -----------------  -----------------  -----------------
       1        0.000000000000     0.000000000000     0.180062724624
       2        0.000000000000     0.000000000000    -0.180062724624


  -Two-electron contribution to gradient:
     Atom            X                  Y                   Z
    ------   -----------------  -----------------  -----------------
       1        0.000000000000     0.000000000000     0.308123915319
       2        0.000000000000     0.000000000000    -0.308123915318


  -Total gradient:
     Atom            X                  Y                   Z
    ------   -----------------  -----------------  -----------------
       1        0.000000000000     0.000000000000    -0.043970317420
       2        0.000000000000     0.000000000000     0.043970317421

   => Loading Basis Set <=

    Name: ANONYMOUS59EECDCB
    Role: ORBITAL
    Keyword: None
    atoms 1-2 entry H          line     5 inputblock s_orb 


    Psi4 stopped on: Saturday, 07 September 2019 05:21PM
    Psi4 wall time for execution: 0:00:00.80

*** Psi4 exiting successfully. Buy a developer a beer!
