
Host: adabbott

Timers On : Mon Jun 15 16:53:57 2020
Timers Off: Mon Jun 15 16:53:58 2020

Wall Time:        0.65 seconds

                                                       Time (seconds)
Module                                       User      System        Wall        Calls

--------------------------------------------------------------------------------------

**************************************************************************************

Host: adabbott

Timers On : Mon Jun 15 16:55:53 2020
Timers Off: Mon Jun 15 16:55:54 2020

Wall Time:        0.80 seconds

                                                       Time (seconds)
Module                                       User      System        Wall        Calls

--------------------------------------------------------------------------------------

**************************************************************************************

Host: adabbott

Timers On : Tue Jun 16 13:33:33 2020
Timers Off: Tue Jun 16 13:33:34 2020

Wall Time:        0.76 seconds

                                                       Time (seconds)
Module                                       User      System        Wall        Calls

--------------------------------------------------------------------------------------

**************************************************************************************

Host: adabbott

Timers On : Tue Jun 16 13:33:41 2020
Timers Off: Tue Jun 16 13:34:27 2020

Wall Time:       45.77 seconds

                                                       Time (seconds)
Module                                       User      System        Wall        Calls

--------------------------------------------------------------------------------------

**************************************************************************************

Host: adabbott

Timers On : Tue Jun 16 13:34:33 2020
Timers Off: Tue Jun 16 13:35:18 2020

Wall Time:       44.54 seconds

                                                       Time (seconds)
Module                                       User      System        Wall        Calls

--------------------------------------------------------------------------------------

**************************************************************************************

Host: adabbott

Timers On : Tue Jun 16 13:36:01 2020
Timers Off: Tue Jun 16 13:36:02 2020

Wall Time:        0.98 seconds

                                                       Time (seconds)
Module                                       User      System        Wall        Calls

--------------------------------------------------------------------------------------

**************************************************************************************

Host: adabbott

Timers On : Tue Jun 16 13:36:24 2020
Timers Off: Tue Jun 16 13:54:52 2020

Wall Time:     1107.85 seconds

                                                       Time (seconds)
Module                                       User      System        Wall        Calls

--------------------------------------------------------------------------------------

**************************************************************************************

Host: adabbott

Timers On : Tue Jun 16 13:59:53 2020
Timers Off: Tue Jun 16 14:00:38 2020

Wall Time:       44.86 seconds

                                                       Time (seconds)
Module                                       User      System        Wall        Calls

--------------------------------------------------------------------------------------

**************************************************************************************

Host: adabbott

Timers On : Tue Jun 16 14:00:55 2020
Timers Off: Tue Jun 16 14:19:25 2020

Wall Time:     1109.77 seconds

                                                       Time (seconds)
Module                                       User      System        Wall        Calls

--------------------------------------------------------------------------------------

**************************************************************************************

Host: adabbott

Timers On : Tue Jun 16 15:17:38 2020
Timers Off: Tue Jun 16 15:17:56 2020

Wall Time:       18.55 seconds

                                                       Time (seconds)
Module                                       User      System        Wall        Calls

--------------------------------------------------------------------------------------

**************************************************************************************

Host: adabbott

Timers On : Tue Jun 16 15:21:54 2020
Timers Off: Tue Jun 16 15:22:13 2020

Wall Time:       18.90 seconds

                                                       Time (seconds)
Module                                       User      System        Wall        Calls

--------------------------------------------------------------------------------------

**************************************************************************************

Host: adabbott

Timers On : Tue Jun 16 15:22:36 2020
Timers Off: Tue Jun 16 15:22:56 2020

Wall Time:       19.23 seconds

                                                       Time (seconds)
Module                                       User      System        Wall        Calls

--------------------------------------------------------------------------------------

**************************************************************************************

Host: adabbott

Timers On : Tue Jun 16 15:23:05 2020
Timers Off: Tue Jun 16 15:23:50 2020

Wall Time:       45.32 seconds

                                                       Time (seconds)
Module                                       User      System        Wall        Calls

--------------------------------------------------------------------------------------

**************************************************************************************

Host: adabbott

Timers On : Tue Jun 16 15:24:07 2020
Timers Off: Tue Jun 16 15:40:50 2020

Wall Time:     1002.91 seconds

                                                       Time (seconds)
Module                                       User      System        Wall        Calls

--------------------------------------------------------------------------------------

**************************************************************************************

Host: adabbott

Timers On : Tue Jun 16 15:43:21 2020
Timers Off: Tue Jun 16 15:44:06 2020

Wall Time:       44.95 seconds

                                                       Time (seconds)
Module                                       User      System        Wall        Calls

--------------------------------------------------------------------------------------

**************************************************************************************

Host: adabbott

Timers On : Tue Jun 16 16:49:56 2020
Timers Off: Tue Jun 16 16:50:29 2020

Wall Time:       32.63 seconds

                                                       Time (seconds)
Module                                       User      System        Wall        Calls

--------------------------------------------------------------------------------------

**************************************************************************************

Host: adabbott

Timers On : Tue Jun 16 16:55:32 2020
Timers Off: Tue Jun 16 17:02:31 2020

Wall Time:      419.63 seconds

                                                       Time (seconds)
Module                                       User      System        Wall        Calls

--------------------------------------------------------------------------------------

**************************************************************************************

Host: adabbott

Timers On : Tue Jun 16 17:04:51 2020
Timers Off: Tue Jun 16 17:04:54 2020

Wall Time:        2.94 seconds

                                                       Time (seconds)
Module                                       User      System        Wall        Calls

--------------------------------------------------------------------------------------

**************************************************************************************

Host: adabbott

Timers On : Tue Jun 16 17:05:19 2020
Timers Off: Tue Jun 16 17:05:22 2020

Wall Time:        2.98 seconds

                                                       Time (seconds)
Module                                       User      System        Wall        Calls

--------------------------------------------------------------------------------------

**************************************************************************************

Host: adabbott

Timers On : Tue Jun 16 17:05:39 2020
Timers Off: Tue Jun 16 17:10:27 2020

Wall Time:      288.38 seconds

                                                       Time (seconds)
Module                                       User      System        Wall        Calls

--------------------------------------------------------------------------------------

**************************************************************************************

Host: adabbott

Timers On : Tue Jun 16 17:14:54 2020
Timers Off: Tue Jun 16 17:15:28 2020

Wall Time:       34.23 seconds

                                                       Time (seconds)
Module                                       User      System        Wall        Calls

--------------------------------------------------------------------------------------

**************************************************************************************

Host: adabbott

Timers On : Tue Jun 16 17:16:08 2020
Timers Off: Tue Jun 16 17:16:42 2020

Wall Time:       33.76 seconds

                                                       Time (seconds)
Module                                       User      System        Wall        Calls

--------------------------------------------------------------------------------------

**************************************************************************************

Host: adabbott

Timers On : Tue Jun 16 17:18:35 2020
Timers Off: Tue Jun 16 17:18:53 2020

Wall Time:       17.30 seconds

                                                       Time (seconds)
Module                                       User      System        Wall        Calls

--------------------------------------------------------------------------------------

**************************************************************************************

Host: adabbott

Timers On : Tue Jun 16 17:19:02 2020
Timers Off: Tue Jun 16 17:19:19 2020

Wall Time:       17.90 seconds

                                                       Time (seconds)
Module                                       User      System        Wall        Calls

--------------------------------------------------------------------------------------

**************************************************************************************

Host: adabbott

Timers On : Tue Jun 16 17:19:36 2020
Timers Off: Tue Jun 16 17:20:20 2020

Wall Time:       43.98 seconds

                                                       Time (seconds)
Module                                       User      System        Wall        Calls

--------------------------------------------------------------------------------------

**************************************************************************************

Host: adabbott

Timers On : Tue Jun 16 17:20:42 2020
Timers Off: Tue Jun 16 17:26:03 2020

Wall Time:      321.42 seconds

                                                       Time (seconds)
Module                                       User      System        Wall        Calls

--------------------------------------------------------------------------------------

**************************************************************************************

Host: adabbott

Timers On : Tue Jun 16 17:26:25 2020
Timers Off: Tue Jun 16 17:26:25 2020

Wall Time:        0.53 seconds

                                                       Time (seconds)
Module                                       User      System        Wall        Calls

--------------------------------------------------------------------------------------

**************************************************************************************

Host: adabbott

Timers On : Tue Jun 16 17:26:37 2020
Timers Off: Tue Jun 16 17:26:38 2020

Wall Time:        0.52 seconds

                                                       Time (seconds)
Module                                       User      System        Wall        Calls

--------------------------------------------------------------------------------------

**************************************************************************************

Host: adabbott

Timers On : Tue Jun 16 17:49:08 2020
Timers Off: Tue Jun 16 17:49:27 2020

Wall Time:       19.74 seconds

                                                       Time (seconds)
Module                                       User      System        Wall        Calls

--------------------------------------------------------------------------------------

**************************************************************************************

Host: adabbott

Timers On : Tue Jun 16 17:49:44 2020
Timers Off: Tue Jun 16 17:50:03 2020

Wall Time:       19.18 seconds

                                                       Time (seconds)
Module                                       User      System        Wall        Calls

--------------------------------------------------------------------------------------

**************************************************************************************

Host: adabbott

Timers On : Tue Jun 16 17:50:18 2020
Timers Off: Tue Jun 16 17:51:02 2020

Wall Time:       43.90 seconds

                                                       Time (seconds)
Module                                       User      System        Wall        Calls

--------------------------------------------------------------------------------------

**************************************************************************************

Host: adabbott

Timers On : Tue Jun 16 18:01:36 2020
Timers Off: Tue Jun 16 18:02:20 2020

Wall Time:       43.68 seconds

                                                       Time (seconds)
Module                                       User      System        Wall        Calls

--------------------------------------------------------------------------------------

**************************************************************************************

Host: adabbott

Timers On : Tue Jun 16 18:02:50 2020
Timers Off: Tue Jun 16 18:19:11 2020

Wall Time:      980.84 seconds

                                                       Time (seconds)
Module                                       User      System        Wall        Calls

--------------------------------------------------------------------------------------

**************************************************************************************

Host: adabbott

Timers On : Wed Jun 17 13:31:38 2020
Timers Off: Wed Jun 17 13:48:10 2020

Wall Time:      991.87 seconds

                                                       Time (seconds)
Module                                       User      System        Wall        Calls

--------------------------------------------------------------------------------------

**************************************************************************************

Host: adabbott

Timers On : Wed Jun 17 13:48:27 2020
Timers Off: Wed Jun 17 14:04:54 2020

Wall Time:      986.43 seconds

                                                       Time (seconds)
Module                                       User      System        Wall        Calls

--------------------------------------------------------------------------------------

**************************************************************************************

Host: adabbott

Timers On : Wed Jun 17 14:04:57 2020
Timers Off: Wed Jun 17 14:11:51 2020

Wall Time:      413.13 seconds

                                                       Time (seconds)
Module                                       User      System        Wall        Calls

--------------------------------------------------------------------------------------

**************************************************************************************

Host: adabbott

Timers On : Wed Jun 17 14:26:02 2020
Timers Off: Wed Jun 17 14:33:09 2020

Wall Time:      426.87 seconds

                                                       Time (seconds)
Module                                       User      System        Wall        Calls

--------------------------------------------------------------------------------------

**************************************************************************************

Host: adabbott

Timers On : Wed Jun 17 14:33:39 2020
Timers Off: Wed Jun 17 14:40:32 2020

Wall Time:      412.52 seconds

                                                       Time (seconds)
Module                                       User      System        Wall        Calls

--------------------------------------------------------------------------------------

**************************************************************************************

Host: adabbott

Timers On : Wed Jun 17 14:50:38 2020
Timers Off: Wed Jun 17 14:57:33 2020

Wall Time:      414.14 seconds

                                                       Time (seconds)
Module                                       User      System        Wall        Calls

--------------------------------------------------------------------------------------

**************************************************************************************

Host: adabbott

Timers On : Wed Jun 17 15:39:18 2020
Timers Off: Wed Jun 17 15:46:30 2020

Wall Time:      432.26 seconds

                                                       Time (seconds)
Module                                       User      System        Wall        Calls

--------------------------------------------------------------------------------------

**************************************************************************************

Host: adabbott

Timers On : Wed Jun 17 15:47:20 2020
Timers Off: Wed Jun 17 15:47:45 2020

Wall Time:       25.46 seconds

                                                       Time (seconds)
Module                                       User      System        Wall        Calls

--------------------------------------------------------------------------------------

**************************************************************************************

Host: adabbott

Timers On : Wed Jun 17 15:47:53 2020
Timers Off: Wed Jun 17 15:48:32 2020

Wall Time:       39.38 seconds

                                                       Time (seconds)
Module                                       User      System        Wall        Calls

--------------------------------------------------------------------------------------

**************************************************************************************
