
Host: adabbott

Timers On : Wed Feb 12 17:46:27 2020
Timers Off: Wed Feb 12 17:46:28 2020

Wall Time:        1.70 seconds

                                                       Time (seconds)
Module                                       User      System        Wall        Calls

--------------------------------------------------------------------------------------

**************************************************************************************

Host: adabbott

Timers On : Wed Feb 12 17:46:54 2020
Timers Off: Wed Feb 12 17:46:56 2020

Wall Time:        1.76 seconds

                                                       Time (seconds)
Module                                       User      System        Wall        Calls

--------------------------------------------------------------------------------------

**************************************************************************************

Host: adabbott

Timers On : Wed Feb 12 17:47:06 2020
Timers Off: Wed Feb 12 17:47:30 2020

Wall Time:       24.07 seconds

                                                       Time (seconds)
Module                                       User      System        Wall        Calls

--------------------------------------------------------------------------------------

**************************************************************************************
