
Host: adabbott

Timers On : Thu Sep 12 11:17:08 2019
Timers Off: Thu Sep 12 11:17:08 2019

Wall Time:        0.43 seconds

                                                       Time (seconds)
Module                                       User      System        Wall        Calls

--------------------------------------------------------------------------------------

**************************************************************************************
