
Host: adabbott

Timers On : Mon Jun  8 16:06:05 2020
Timers Off: Mon Jun  8 16:07:00 2020

Wall Time:       54.57 seconds

                                                       Time (seconds)
Module                                       User      System        Wall        Calls

--------------------------------------------------------------------------------------

**************************************************************************************

Host: adabbott

Timers On : Mon Jun  8 16:24:14 2020
Timers Off: Mon Jun  8 16:24:15 2020

Wall Time:        1.01 seconds

                                                       Time (seconds)
Module                                       User      System        Wall        Calls

--------------------------------------------------------------------------------------

**************************************************************************************

Host: adabbott

Timers On : Mon Jun  8 16:24:38 2020
Timers Off: Mon Jun  8 16:24:39 2020

Wall Time:        1.02 seconds

                                                       Time (seconds)
Module                                       User      System        Wall        Calls

--------------------------------------------------------------------------------------

**************************************************************************************

Host: adabbott

Timers On : Mon Jun 15 12:51:55 2020
Timers Off: Mon Jun 15 12:51:56 2020

Wall Time:        1.02 seconds

                                                       Time (seconds)
Module                                       User      System        Wall        Calls

--------------------------------------------------------------------------------------

**************************************************************************************

Host: adabbott

Timers On : Mon Jun 15 12:52:27 2020
Timers Off: Mon Jun 15 12:52:28 2020

Wall Time:        0.44 seconds

                                                       Time (seconds)
Module                                       User      System        Wall        Calls

--------------------------------------------------------------------------------------

**************************************************************************************

Host: adabbott

Timers On : Mon Jun 15 12:56:17 2020
Timers Off: Mon Jun 15 12:56:26 2020

Wall Time:        8.26 seconds

                                                       Time (seconds)
Module                                       User      System        Wall        Calls

--------------------------------------------------------------------------------------

**************************************************************************************

Host: adabbott

Timers On : Mon Jun 15 12:56:44 2020
Timers Off: Mon Jun 15 12:56:52 2020

Wall Time:        8.14 seconds

                                                       Time (seconds)
Module                                       User      System        Wall        Calls

--------------------------------------------------------------------------------------

**************************************************************************************

Host: adabbott

Timers On : Mon Jun 15 13:18:06 2020
Timers Off: Mon Jun 15 13:18:22 2020

Wall Time:       15.38 seconds

                                                       Time (seconds)
Module                                       User      System        Wall        Calls

--------------------------------------------------------------------------------------

**************************************************************************************

Host: adabbott

Timers On : Mon Jun 15 13:21:34 2020
Timers Off: Mon Jun 15 13:21:50 2020

Wall Time:       16.30 seconds

                                                       Time (seconds)
Module                                       User      System        Wall        Calls

--------------------------------------------------------------------------------------

**************************************************************************************

Host: adabbott

Timers On : Mon Jun 15 13:22:17 2020
Timers Off: Mon Jun 15 13:24:10 2020

Wall Time:      112.46 seconds

                                                       Time (seconds)
Module                                       User      System        Wall        Calls

--------------------------------------------------------------------------------------

**************************************************************************************

Host: adabbott

Timers On : Mon Jun 15 13:58:37 2020
Timers Off: Mon Jun 15 13:58:37 2020

Wall Time:        0.69 seconds

                                                       Time (seconds)
Module                                       User      System        Wall        Calls

--------------------------------------------------------------------------------------

**************************************************************************************

Host: adabbott

Timers On : Mon Jun 15 13:58:53 2020
Timers Off: Mon Jun 15 13:58:58 2020

Wall Time:        5.06 seconds

                                                       Time (seconds)
Module                                       User      System        Wall        Calls

--------------------------------------------------------------------------------------

**************************************************************************************

Host: adabbott

Timers On : Mon Jun 15 13:59:16 2020
Timers Off: Mon Jun 15 13:59:21 2020

Wall Time:        5.27 seconds

                                                       Time (seconds)
Module                                       User      System        Wall        Calls

--------------------------------------------------------------------------------------

**************************************************************************************

Host: adabbott

Timers On : Mon Jun 15 14:00:23 2020
Timers Off: Mon Jun 15 14:00:24 2020

Wall Time:        0.72 seconds

                                                       Time (seconds)
Module                                       User      System        Wall        Calls

--------------------------------------------------------------------------------------

**************************************************************************************

Host: adabbott

Timers On : Mon Jun 15 14:01:45 2020
Timers Off: Mon Jun 15 14:01:46 2020

Wall Time:        1.03 seconds

                                                       Time (seconds)
Module                                       User      System        Wall        Calls

--------------------------------------------------------------------------------------

**************************************************************************************

Host: adabbott

Timers On : Mon Jun 15 14:01:55 2020
Timers Off: Mon Jun 15 14:01:56 2020

Wall Time:        1.41 seconds

                                                       Time (seconds)
Module                                       User      System        Wall        Calls

--------------------------------------------------------------------------------------

**************************************************************************************

Host: adabbott

Timers On : Mon Jun 15 14:02:20 2020
Timers Off: Mon Jun 15 14:02:22 2020

Wall Time:        1.39 seconds

                                                       Time (seconds)
Module                                       User      System        Wall        Calls

--------------------------------------------------------------------------------------

**************************************************************************************

Host: adabbott

Timers On : Mon Jun 15 14:02:36 2020
Timers Off: Mon Jun 15 14:02:52 2020

Wall Time:       16.02 seconds

                                                       Time (seconds)
Module                                       User      System        Wall        Calls

--------------------------------------------------------------------------------------

**************************************************************************************

Host: adabbott

Timers On : Mon Jun 15 14:04:15 2020
Timers Off: Mon Jun 15 14:04:31 2020

Wall Time:       15.36 seconds

                                                       Time (seconds)
Module                                       User      System        Wall        Calls

--------------------------------------------------------------------------------------

**************************************************************************************

Host: adabbott

Timers On : Mon Jun 15 14:04:45 2020
Timers Off: Mon Jun 15 14:05:00 2020

Wall Time:       15.72 seconds

                                                       Time (seconds)
Module                                       User      System        Wall        Calls

--------------------------------------------------------------------------------------

**************************************************************************************

Host: adabbott

Timers On : Mon Jun 15 14:12:13 2020
Timers Off: Mon Jun 15 14:12:29 2020

Wall Time:       15.73 seconds

                                                       Time (seconds)
Module                                       User      System        Wall        Calls

--------------------------------------------------------------------------------------

**************************************************************************************

Host: adabbott

Timers On : Mon Jun 15 14:12:50 2020
Timers Off: Mon Jun 15 14:13:06 2020

Wall Time:       15.74 seconds

                                                       Time (seconds)
Module                                       User      System        Wall        Calls

--------------------------------------------------------------------------------------

**************************************************************************************

Host: adabbott

Timers On : Mon Jun 15 14:25:54 2020
Timers Off: Mon Jun 15 14:26:10 2020

Wall Time:       15.69 seconds

                                                       Time (seconds)
Module                                       User      System        Wall        Calls

--------------------------------------------------------------------------------------

**************************************************************************************

Host: adabbott

Timers On : Mon Jun 15 14:33:50 2020
Timers Off: Mon Jun 15 14:34:06 2020

Wall Time:       15.76 seconds

                                                       Time (seconds)
Module                                       User      System        Wall        Calls

--------------------------------------------------------------------------------------

**************************************************************************************

Host: adabbott

Timers On : Mon Jun 15 14:35:11 2020
Timers Off: Mon Jun 15 14:35:27 2020

Wall Time:       15.88 seconds

                                                       Time (seconds)
Module                                       User      System        Wall        Calls

--------------------------------------------------------------------------------------

**************************************************************************************

Host: adabbott

Timers On : Mon Jun 15 15:02:51 2020
Timers Off: Mon Jun 15 15:03:08 2020

Wall Time:       16.71 seconds

                                                       Time (seconds)
Module                                       User      System        Wall        Calls

--------------------------------------------------------------------------------------

**************************************************************************************

Host: adabbott

Timers On : Mon Jun 15 15:32:58 2020
Timers Off: Mon Jun 15 15:33:17 2020

Wall Time:       18.69 seconds

                                                       Time (seconds)
Module                                       User      System        Wall        Calls

--------------------------------------------------------------------------------------

**************************************************************************************

Host: adabbott

Timers On : Mon Jun 15 16:03:41 2020
Timers Off: Mon Jun 15 16:04:01 2020

Wall Time:       19.94 seconds

                                                       Time (seconds)
Module                                       User      System        Wall        Calls

--------------------------------------------------------------------------------------

**************************************************************************************

Host: adabbott

Timers On : Mon Jun 15 16:05:27 2020
Timers Off: Mon Jun 15 16:05:45 2020

Wall Time:       18.40 seconds

                                                       Time (seconds)
Module                                       User      System        Wall        Calls

--------------------------------------------------------------------------------------

**************************************************************************************

Host: adabbott

Timers On : Mon Jun 15 16:06:09 2020
Timers Off: Mon Jun 15 16:06:10 2020

Wall Time:        1.16 seconds

                                                       Time (seconds)
Module                                       User      System        Wall        Calls

--------------------------------------------------------------------------------------

**************************************************************************************

Host: adabbott

Timers On : Mon Jun 15 16:08:43 2020
Timers Off: Mon Jun 15 16:08:44 2020

Wall Time:        1.33 seconds

                                                       Time (seconds)
Module                                       User      System        Wall        Calls

--------------------------------------------------------------------------------------

**************************************************************************************

Host: adabbott

Timers On : Mon Jun 15 16:08:56 2020
Timers Off: Mon Jun 15 16:08:58 2020

Wall Time:        1.40 seconds

                                                       Time (seconds)
Module                                       User      System        Wall        Calls

--------------------------------------------------------------------------------------

**************************************************************************************

Host: adabbott

Timers On : Mon Jun 15 16:09:12 2020
Timers Off: Mon Jun 15 16:09:18 2020

Wall Time:        6.11 seconds

                                                       Time (seconds)
Module                                       User      System        Wall        Calls

--------------------------------------------------------------------------------------

**************************************************************************************

Host: adabbott

Timers On : Mon Jun 15 16:09:30 2020
Timers Off: Mon Jun 15 16:09:49 2020

Wall Time:       18.73 seconds

                                                       Time (seconds)
Module                                       User      System        Wall        Calls

--------------------------------------------------------------------------------------

**************************************************************************************

Host: adabbott

Timers On : Mon Jun 15 16:10:09 2020
Timers Off: Mon Jun 15 16:10:29 2020

Wall Time:       19.34 seconds

                                                       Time (seconds)
Module                                       User      System        Wall        Calls

--------------------------------------------------------------------------------------

**************************************************************************************

Host: adabbott

Timers On : Mon Jun 15 16:11:19 2020
Timers Off: Mon Jun 15 16:11:37 2020

Wall Time:       18.42 seconds

                                                       Time (seconds)
Module                                       User      System        Wall        Calls

--------------------------------------------------------------------------------------

**************************************************************************************

Host: adabbott

Timers On : Mon Jun 15 16:13:37 2020
Timers Off: Mon Jun 15 16:13:45 2020

Wall Time:        8.52 seconds

                                                       Time (seconds)
Module                                       User      System        Wall        Calls

--------------------------------------------------------------------------------------

**************************************************************************************

Host: adabbott

Timers On : Mon Jun 15 16:14:47 2020
Timers Off: Mon Jun 15 16:14:56 2020

Wall Time:        8.47 seconds

                                                       Time (seconds)
Module                                       User      System        Wall        Calls

--------------------------------------------------------------------------------------

**************************************************************************************

Host: adabbott

Timers On : Mon Jun 15 16:15:03 2020
Timers Off: Mon Jun 15 16:15:22 2020

Wall Time:       18.41 seconds

                                                       Time (seconds)
Module                                       User      System        Wall        Calls

--------------------------------------------------------------------------------------

**************************************************************************************

Host: adabbott

Timers On : Mon Jun 15 16:16:34 2020
Timers Off: Mon Jun 15 16:16:52 2020

Wall Time:       18.34 seconds

                                                       Time (seconds)
Module                                       User      System        Wall        Calls

--------------------------------------------------------------------------------------

**************************************************************************************

Host: adabbott

Timers On : Mon Jun 15 16:19:41 2020
Timers Off: Mon Jun 15 16:19:42 2020

Wall Time:        0.82 seconds

                                                       Time (seconds)
Module                                       User      System        Wall        Calls

--------------------------------------------------------------------------------------

**************************************************************************************

Host: adabbott

Timers On : Mon Jun 15 16:27:03 2020
Timers Off: Mon Jun 15 16:27:24 2020

Wall Time:       21.08 seconds

                                                       Time (seconds)
Module                                       User      System        Wall        Calls

--------------------------------------------------------------------------------------

**************************************************************************************

Host: adabbott

Timers On : Mon Jun 15 16:27:52 2020
Timers Off: Mon Jun 15 16:28:16 2020

Wall Time:       23.89 seconds

                                                       Time (seconds)
Module                                       User      System        Wall        Calls

--------------------------------------------------------------------------------------

**************************************************************************************

Host: adabbott

Timers On : Mon Jun 15 16:29:35 2020
Timers Off: Mon Jun 15 16:30:27 2020

Wall Time:       51.91 seconds

                                                       Time (seconds)
Module                                       User      System        Wall        Calls

--------------------------------------------------------------------------------------

**************************************************************************************

Host: adabbott

Timers On : Mon Jun 15 16:31:27 2020
Timers Off: Mon Jun 15 16:32:19 2020

Wall Time:       52.10 seconds

                                                       Time (seconds)
Module                                       User      System        Wall        Calls

--------------------------------------------------------------------------------------

**************************************************************************************

Host: adabbott

Timers On : Mon Jun 15 16:35:07 2020
Timers Off: Mon Jun 15 16:35:08 2020

Wall Time:        0.80 seconds

                                                       Time (seconds)
Module                                       User      System        Wall        Calls

--------------------------------------------------------------------------------------

**************************************************************************************

Host: adabbott

Timers On : Mon Jun 15 16:35:41 2020
Timers Off: Mon Jun 15 16:35:56 2020

Wall Time:       14.86 seconds

                                                       Time (seconds)
Module                                       User      System        Wall        Calls

--------------------------------------------------------------------------------------

**************************************************************************************

Host: adabbott

Timers On : Mon Jun 15 16:37:57 2020
Timers Off: Mon Jun 15 16:38:17 2020

Wall Time:       19.81 seconds

                                                       Time (seconds)
Module                                       User      System        Wall        Calls

--------------------------------------------------------------------------------------

**************************************************************************************

Host: adabbott

Timers On : Mon Jun 15 16:38:58 2020
Timers Off: Mon Jun 15 16:39:19 2020

Wall Time:       20.91 seconds

                                                       Time (seconds)
Module                                       User      System        Wall        Calls

--------------------------------------------------------------------------------------

**************************************************************************************

Host: adabbott

Timers On : Mon Jun 15 16:40:09 2020
Timers Off: Mon Jun 15 16:40:30 2020

Wall Time:       21.09 seconds

                                                       Time (seconds)
Module                                       User      System        Wall        Calls

--------------------------------------------------------------------------------------

**************************************************************************************

Host: adabbott

Timers On : Mon Jun 15 16:40:44 2020
Timers Off: Mon Jun 15 16:41:31 2020

Wall Time:       46.93 seconds

                                                       Time (seconds)
Module                                       User      System        Wall        Calls

--------------------------------------------------------------------------------------

**************************************************************************************

Host: adabbott

Timers On : Mon Jun 15 16:42:09 2020
Timers Off: Mon Jun 15 16:42:57 2020

Wall Time:       47.53 seconds

                                                       Time (seconds)
Module                                       User      System        Wall        Calls

--------------------------------------------------------------------------------------

**************************************************************************************

Host: adabbott

Timers On : Mon Jun 15 16:51:27 2020
Timers Off: Mon Jun 15 16:51:49 2020

Wall Time:       21.96 seconds

                                                       Time (seconds)
Module                                       User      System        Wall        Calls

--------------------------------------------------------------------------------------

**************************************************************************************

Host: adabbott

Timers On : Mon Jun 15 16:52:08 2020
Timers Off: Mon Jun 15 16:52:30 2020

Wall Time:       21.33 seconds

                                                       Time (seconds)
Module                                       User      System        Wall        Calls

--------------------------------------------------------------------------------------

**************************************************************************************

Host: adabbott

Timers On : Mon Jun 15 16:59:32 2020
Timers Off: Mon Jun 15 17:18:41 2020

Wall Time:     1148.40 seconds

                                                       Time (seconds)
Module                                       User      System        Wall        Calls

--------------------------------------------------------------------------------------

**************************************************************************************

Host: adabbott

Timers On : Tue Jun 16 13:18:01 2020
Timers Off: Tue Jun 16 13:18:48 2020

Wall Time:       47.68 seconds

                                                       Time (seconds)
Module                                       User      System        Wall        Calls

--------------------------------------------------------------------------------------

**************************************************************************************

Host: adabbott

Timers On : Tue Jun 16 13:23:10 2020
Timers Off: Tue Jun 16 13:23:10 2020

Wall Time:        0.64 seconds

                                                       Time (seconds)
Module                                       User      System        Wall        Calls

--------------------------------------------------------------------------------------

**************************************************************************************

Host: adabbott

Timers On : Tue Jun 16 13:23:23 2020
Timers Off: Tue Jun 16 13:24:47 2020

Wall Time:       83.83 seconds

                                                       Time (seconds)
Module                                       User      System        Wall        Calls

--------------------------------------------------------------------------------------

**************************************************************************************
