
    -----------------------------------------------------------------------
          Psi4: An Open-Source Ab Initio Electronic Structure Package
                               Psi4 1.3.2 release

                         Git: Rev {HEAD} ecbda83 


    R. M. Parrish, L. A. Burns, D. G. A. Smith, A. C. Simmonett,
    A. E. DePrince III, E. G. Hohenstein, U. Bozkaya, A. Yu. Sokolov,
    R. Di Remigio, R. M. Richard, J. F. Gonthier, A. M. James,
    H. R. McAlexander, A. Kumar, M. Saitow, X. Wang, B. P. Pritchard,
    P. Verma, H. F. Schaefer III, K. Patkowski, R. A. King, E. F. Valeev,
    F. A. Evangelista, J. M. Turney, T. D. Crawford, and C. D. Sherrill,
    J. Chem. Theory Comput. 13(7) pp 3185--3197 (2017).
    (doi: 10.1021/acs.jctc.7b00174)


                         Additional Contributions by
    P. Kraus, H. Kruse, M. H. Lechner, M. C. Schieber, R. A. Shaw,
    A. Alenaizan, R. Galvelis, Z. L. Glick, S. Lehtola, and J. P. Misiewicz

    -----------------------------------------------------------------------


    Psi4 started on: Friday, 25 October 2019 02:40PM

    Process ID: 23378
    Host:       adabbott
    PSIDATADIR: /home/adabbott/anaconda3/envs/peslearn/share/psi4
    Memory:     500.0 MiB
    Threads:    1
    
  ==> Input File <==

--------------------------------------------------------------------------
import psi4
import numpy as np
np.set_printoptions(linewidth=599)

basis {
assign s_orb
[ s_orb ]
cartesian
****
H     0
S   1   1.00
      0.50000000000      1.0000000000
****
Li     0
D   1   1.00
      0.50000000000      1.0000000000
****
}

molecule h2o {
symmetry c1
units bohr
0 1
H 0.000000000000 0.000000000000 -0.849220457955
#H 0.000000000000 0.000000000000  0.849220457955
Li 0.000000000000 0.000000000000  0.849220457955
}

set scf_type pk
set mp2_type conv
set puream false
#set puream true
set e_convergence 10
set d_convergence 10
e, wfn = energy('hf', return_wfn=True)


mol = wfn.molecule()
bs = wfn.basisset()
basis = psi4.core.BasisSet.build(mol)
mints = psi4.core.MintsHelper(basis)

basis.print_detail_out()
print(basis.shell(0).coef(0))

S = mints.ao_overlap()
V = mints.ao_potential()
S.print_out()
V.print_out()


print(np.asarray(S))
print(np.asarray(V))


--------------------------------------------------------------------------

*** tstart() called on adabbott
*** at Fri Oct 25 14:40:25 2019

   => Loading Basis Set <=

    Name: ANONYMOUS26A79020
    Role: ORBITAL
    Keyword: BASIS
    atoms 1 entry H          line     5 inputblock s_orb 
    atoms 2 entry LI         line     9 inputblock s_orb 


         ---------------------------------------------------------
                                   SCF
               by Justin Turney, Rob Parrish, Andy Simmonett
                          and Daniel G. A. Smith
                              RHF Reference
                        1 Threads,    500 MiB Core
         ---------------------------------------------------------

  ==> Geometry <==

    Molecular point group: c1
    Full point group: C_inf_v

    Geometry (in Bohr), charge = 0, multiplicity = 1:

       Center              X                  Y                   Z               Mass       
    ------------   -----------------  -----------------  -----------------  -----------------
         H            0.000000000000     0.000000000000    -1.485109925913     1.007825032230
         LI           0.000000000000     0.000000000000     0.213330989997     7.016003436600

  Running in c1 symmetry.

  Rotational constants: A = ************  B =     23.68100  C =     23.68100 [cm^-1]
  Rotational constants: A = ************  B = 709938.53229  C = 709938.53229 [MHz]
  Nuclear repulsion =    1.766325794378690

  Charge       = 0
  Multiplicity = 1
  Electrons    = 4
  Nalpha       = 2
  Nbeta        = 2

  ==> Algorithm <==

  SCF Algorithm Type is PK.
  DIIS enabled.
  MOM disabled.
  Fractional occupation disabled.
  Guess Type is SAD.
  Energy threshold   = 1.00e-10
  Density threshold  = 1.00e-10
  Integral threshold = 0.00e+00

  ==> Primary Basis <==

  Basis Set: ANONYMOUS26A79020
    Blend: S_ORB
    Number of shells: 2
    Number of basis function: 7
    Number of Cartesian functions: 7
    Spherical Harmonics?: false
    Max angular momentum: 2

  ==> Pre-Iterations <==

   -------------------------------------------------------
    Irrep   Nso     Nmo     Nalpha   Nbeta   Ndocc  Nsocc
   -------------------------------------------------------
     A          7       7       0       0       0       0
   -------------------------------------------------------
    Total       7       7       2       2       2       0
   -------------------------------------------------------

  ==> Integral Setup <==

  Using in-core PK algorithm.
   Calculation information:
      Number of atoms:                   2
      Number of AO shells:               2
      Number of primitives:              2
      Number of atomic orbitals:         7
      Number of basis functions:         7

      Integral cutoff                 1.00e-12
      Number of threads:                 1

  Performing in-core PK
  Using 812 doubles for integral storage.
  We computed 6 shell quartets total.
  Whereas there are 6 unique shell quartets.

  ==> DiskJK: Disk-Based J/K Matrices <==

    J tasked:                  Yes
    K tasked:                  Yes
    wK tasked:                  No
    Memory [MiB]:              375
    Schwarz Cutoff:          1E-12

    OpenMP threads:              1

  Minimum eigenvalue in the overlap matrix is 3.1073854891E-01.
  Using Symmetric Orthogonalization.

  SCF Guess: Superposition of Atomic Densities via on-the-fly atomic UHF.

  ==> Iterations <==

                        Total Energy        Delta E     RMS |[F,P]|

   @RHF iter SAD:    -1.41941442694886   -1.41941e+00   0.00000e+00 
   @RHF iter   1:    -2.33584383495405   -9.16429e-01   3.46198e-03 DIIS
   @RHF iter   2:    -2.33623051780834   -3.86683e-04   6.41542e-04 DIIS
   @RHF iter   3:    -2.33624516309161   -1.46453e-05   2.88145e-05 DIIS
   @RHF iter   4:    -2.33624520739082   -4.42992e-08   8.99773e-07 DIIS
   @RHF iter   5:    -2.33624520743112   -4.02949e-11   9.63835e-08 DIIS
   @RHF iter   6:    -2.33624520743157   -4.53415e-13   8.69446e-10 DIIS
   @RHF iter   7:    -2.33624520743157   -4.44089e-16   5.85940e-11 DIIS
  Energy and wave function converged.


  ==> Post-Iterations <==

    Orbital Energies [Eh]
    ---------------------

    Doubly Occupied:                                                      

       1A     -0.681548     2A      0.032563  

    Virtual:                                                              

       3A      1.209289     4A      1.260225     5A      1.260225  
       6A      1.282074     7A      1.282074  

    Final Occupation by Irrep:
              A 
    DOCC [     2 ]

  @RHF Final Energy:    -2.33624520743157

   => Energetics <=

    Nuclear Repulsion Energy =              1.7663257943786896
    One-Electron Energy =                  -6.9071718301630156
    Two-Electron Energy =                   2.8046008283527568
    Total Energy =                         -2.3362452074315696

Computation Completed


Properties will be evaluated at   0.000000,   0.000000,   0.000000 [a0]

Properties computed using the SCF density matrix

  Nuclear Dipole Moment: [e a0]
     X:     0.0000      Y:     0.0000      Z:    -0.8451

  Electronic Dipole Moment: [e a0]
     X:     0.0000      Y:     0.0000      Z:     1.5758

  Dipole Moment: [e a0]
     X:     0.0000      Y:     0.0000      Z:     0.7307     Total:     0.7307

  Dipole Moment: [D]
     X:     0.0000      Y:     0.0000      Z:     1.8572     Total:     1.8572


*** tstop() called on adabbott at Fri Oct 25 14:40:25 2019
Module time:
	user time   =       0.28 seconds =       0.00 minutes
	system time =       0.00 seconds =       0.00 minutes
	total time  =          0 seconds =       0.00 minutes
Total time:
	user time   =       0.28 seconds =       0.00 minutes
	system time =       0.00 seconds =       0.00 minutes
	total time  =          0 seconds =       0.00 minutes
   => Loading Basis Set <=

    Name: ANONYMOUS26A79020
    Role: ORBITAL
    Keyword: None
    atoms 1 entry H          line     5 inputblock s_orb 
    atoms 2 entry LI         line     9 inputblock s_orb 

  -AO BASIS SET INFORMATION:
    Name                   = ANONYMOUS26A79020
    Blend                  = S_ORB
    Total number of shells = 2
    Number of primitives   = 2
    Number of AO           = 7
    Number of SO           = 7
    Maximum AM             = 2
    Spherical Harmonics    = FALSE

  -Contraction Scheme:
    Atom   Type   All Primitives // Shells:
   ------ ------ --------------------------
       1     H     1s // 1s 
       2    LI     1d // 1d 

  ==> AO Basis Functions <==

    [ ANONYMOUS26A79020 ]
    cartesian
    ****
    H   1
    S   1 1.00
                         0.50000000           1.00000000
    ****
   LI   2
    D   1 1.00
                         0.50000000           1.00000000
    ****

  ## AO-basis Overlap Ints (Symmetry 0) ##
  Irrep: 1 Size: 7 x 7

                 1                   2                   3                   4                   5

    1     1.00000000000000     0.28069642532818     0.00000000000000     0.00000000000000     0.28069642532818
    2     0.28069642532818     1.00000000000000     0.00000000000000     0.00000000000000     0.33333333333333
    3     0.00000000000000     0.00000000000000     0.33333333333333     0.00000000000000     0.00000000000000
    4     0.00000000000000     0.00000000000000     0.00000000000000     0.33333333333333     0.00000000000000
    5     0.28069642532818     0.33333333333333     0.00000000000000     0.00000000000000     1.00000000000000
    6     0.00000000000000     0.00000000000000     0.00000000000000     0.00000000000000     0.00000000000000
    7     0.68555913121541     0.33333333333333     0.00000000000000     0.00000000000000     0.33333333333333

                 6                   7

    1     0.00000000000000     0.68555913121541
    2     0.00000000000000     0.33333333333333
    3     0.00000000000000     0.00000000000000
    4     0.00000000000000     0.00000000000000
    5     0.00000000000000     0.33333333333333
    6     0.33333333333333     0.00000000000000
    7     0.00000000000000     1.00000000000000



  ## AO-basis Potential Ints (Symmetry 0) ##
  Irrep: 1 Size: 7 x 7

                 1                   2                   3                   4                   5

    1    -2.86590047514888    -0.73936909640509     0.00000000000000     0.00000000000000    -0.73936909640509
    2    -0.73936909640509    -2.24125122761951     0.00000000000000     0.00000000000000    -0.74708374253984
    3     0.00000000000000     0.00000000000000    -0.74708374253984     0.00000000000000     0.00000000000000
    4     0.00000000000000     0.00000000000000     0.00000000000000    -0.77722625311192     0.00000000000000
    5    -0.73936909640509    -0.74708374253984     0.00000000000000     0.00000000000000    -2.24125122761951
    6     0.00000000000000     0.00000000000000     0.00000000000000     0.00000000000000     0.00000000000000
    7    -2.02682664285538    -0.77722625311192     0.00000000000000     0.00000000000000    -0.77722625311192

                 6                   7

    1     0.00000000000000    -2.02682664285538
    2     0.00000000000000    -0.77722625311192
    3     0.00000000000000     0.00000000000000
    4     0.00000000000000     0.00000000000000
    5     0.00000000000000    -0.77722625311192
    6    -0.77722625311192     0.00000000000000
    7     0.00000000000000    -2.56898165573654




    Psi4 stopped on: Friday, 25 October 2019 02:40PM
    Psi4 wall time for execution: 0:00:00.33

*** Psi4 exiting successfully. Buy a developer a beer!
