
Host: adabbott

Timers On : Sun Jun  7 17:26:29 2020
Timers Off: Sun Jun  7 17:26:30 2020

Wall Time:        0.67 seconds

                                                       Time (seconds)
Module                                       User      System        Wall        Calls

--------------------------------------------------------------------------------------

**************************************************************************************

Host: adabbott

Timers On : Sun Jun  7 17:26:35 2020
Timers Off: Sun Jun  7 17:26:36 2020

Wall Time:        0.67 seconds

                                                       Time (seconds)
Module                                       User      System        Wall        Calls

--------------------------------------------------------------------------------------

**************************************************************************************

Host: adabbott

Timers On : Sun Jun  7 17:27:39 2020
Timers Off: Sun Jun  7 17:27:40 2020

Wall Time:        0.76 seconds

                                                       Time (seconds)
Module                                       User      System        Wall        Calls

--------------------------------------------------------------------------------------

**************************************************************************************

Host: adabbott

Timers On : Sun Jun  7 17:30:14 2020
Timers Off: Sun Jun  7 17:30:15 2020

Wall Time:        0.74 seconds

                                                       Time (seconds)
Module                                       User      System        Wall        Calls

--------------------------------------------------------------------------------------

**************************************************************************************

Host: adabbott

Timers On : Sun Jun  7 17:30:23 2020
Timers Off: Sun Jun  7 17:30:24 2020

Wall Time:        0.74 seconds

                                                       Time (seconds)
Module                                       User      System        Wall        Calls

--------------------------------------------------------------------------------------

**************************************************************************************

Host: adabbott

Timers On : Sun Jun  7 17:30:33 2020
Timers Off: Sun Jun  7 17:30:33 2020

Wall Time:        0.76 seconds

                                                       Time (seconds)
Module                                       User      System        Wall        Calls

--------------------------------------------------------------------------------------

**************************************************************************************

Host: adabbott

Timers On : Sun Jun  7 17:31:32 2020
Timers Off: Sun Jun  7 17:31:32 2020

Wall Time:        0.74 seconds

                                                       Time (seconds)
Module                                       User      System        Wall        Calls

--------------------------------------------------------------------------------------

**************************************************************************************

Host: adabbott

Timers On : Sun Jun  7 17:32:00 2020
Timers Off: Sun Jun  7 17:32:01 2020

Wall Time:        0.74 seconds

                                                       Time (seconds)
Module                                       User      System        Wall        Calls

--------------------------------------------------------------------------------------

**************************************************************************************

Host: adabbott

Timers On : Sun Jun  7 17:33:36 2020
Timers Off: Sun Jun  7 17:33:37 2020

Wall Time:        0.74 seconds

                                                       Time (seconds)
Module                                       User      System        Wall        Calls

--------------------------------------------------------------------------------------

**************************************************************************************

Host: adabbott

Timers On : Sun Jun  7 17:34:07 2020
Timers Off: Sun Jun  7 17:34:08 2020

Wall Time:        0.82 seconds

                                                       Time (seconds)
Module                                       User      System        Wall        Calls

--------------------------------------------------------------------------------------

**************************************************************************************

Host: adabbott

Timers On : Sun Jun  7 17:37:18 2020
Timers Off: Sun Jun  7 17:37:24 2020

Wall Time:        5.64 seconds

                                                       Time (seconds)
Module                                       User      System        Wall        Calls

--------------------------------------------------------------------------------------

**************************************************************************************

Host: adabbott

Timers On : Sun Jun  7 17:37:35 2020
Timers Off: Sun Jun  7 17:37:41 2020

Wall Time:        5.66 seconds

                                                       Time (seconds)
Module                                       User      System        Wall        Calls

--------------------------------------------------------------------------------------

**************************************************************************************

Host: adabbott

Timers On : Sun Jun  7 17:39:01 2020
Timers Off: Sun Jun  7 17:39:07 2020

Wall Time:        5.47 seconds

                                                       Time (seconds)
Module                                       User      System        Wall        Calls

--------------------------------------------------------------------------------------

**************************************************************************************

Host: adabbott

Timers On : Sun Jun  7 18:11:36 2020
Timers Off: Sun Jun  7 18:11:37 2020

Wall Time:        0.80 seconds

                                                       Time (seconds)
Module                                       User      System        Wall        Calls

--------------------------------------------------------------------------------------

**************************************************************************************

Host: adabbott

Timers On : Sun Jun  7 18:12:11 2020
Timers Off: Sun Jun  7 18:12:11 2020

Wall Time:        0.83 seconds

                                                       Time (seconds)
Module                                       User      System        Wall        Calls

--------------------------------------------------------------------------------------

**************************************************************************************

Host: adabbott

Timers On : Sun Jun  7 18:12:24 2020
Timers Off: Sun Jun  7 18:12:34 2020

Wall Time:        9.30 seconds

                                                       Time (seconds)
Module                                       User      System        Wall        Calls

--------------------------------------------------------------------------------------

**************************************************************************************

Host: adabbott

Timers On : Sun Jun  7 18:14:38 2020
Timers Off: Sun Jun  7 18:14:38 2020

Wall Time:        0.83 seconds

                                                       Time (seconds)
Module                                       User      System        Wall        Calls

--------------------------------------------------------------------------------------

**************************************************************************************

Host: adabbott

Timers On : Sun Jun  7 18:14:51 2020
Timers Off: Sun Jun  7 18:14:52 2020

Wall Time:        0.67 seconds

                                                       Time (seconds)
Module                                       User      System        Wall        Calls

--------------------------------------------------------------------------------------

**************************************************************************************

Host: adabbott

Timers On : Sun Jun  7 18:15:05 2020
Timers Off: Sun Jun  7 18:15:06 2020

Wall Time:        0.67 seconds

                                                       Time (seconds)
Module                                       User      System        Wall        Calls

--------------------------------------------------------------------------------------

**************************************************************************************

Host: adabbott

Timers On : Sun Jun  7 18:16:06 2020
Timers Off: Sun Jun  7 18:16:30 2020

Wall Time:       24.13 seconds

                                                       Time (seconds)
Module                                       User      System        Wall        Calls

--------------------------------------------------------------------------------------

**************************************************************************************

Host: adabbott

Timers On : Sun Jun  7 18:19:35 2020
Timers Off: Sun Jun  7 18:19:58 2020

Wall Time:       23.39 seconds

                                                       Time (seconds)
Module                                       User      System        Wall        Calls

--------------------------------------------------------------------------------------

**************************************************************************************

Host: adabbott

Timers On : Sun Jun  7 18:22:13 2020
Timers Off: Sun Jun  7 18:22:36 2020

Wall Time:       23.28 seconds

                                                       Time (seconds)
Module                                       User      System        Wall        Calls

--------------------------------------------------------------------------------------

**************************************************************************************

Host: adabbott

Timers On : Sun Jun  7 18:35:07 2020
Timers Off: Sun Jun  7 18:35:07 2020

Wall Time:        0.80 seconds

                                                       Time (seconds)
Module                                       User      System        Wall        Calls

--------------------------------------------------------------------------------------

**************************************************************************************

Host: adabbott

Timers On : Sun Jun  7 18:36:16 2020
Timers Off: Sun Jun  7 18:36:17 2020

Wall Time:        0.80 seconds

                                                       Time (seconds)
Module                                       User      System        Wall        Calls

--------------------------------------------------------------------------------------

**************************************************************************************

Host: adabbott

Timers On : Sun Jun  7 18:38:51 2020
Timers Off: Sun Jun  7 18:39:14 2020

Wall Time:       23.26 seconds

                                                       Time (seconds)
Module                                       User      System        Wall        Calls

--------------------------------------------------------------------------------------

**************************************************************************************

Host: adabbott

Timers On : Sun Jun  7 18:39:46 2020
Timers Off: Sun Jun  7 18:39:47 2020

Wall Time:        0.84 seconds

                                                       Time (seconds)
Module                                       User      System        Wall        Calls

--------------------------------------------------------------------------------------

**************************************************************************************

Host: adabbott

Timers On : Sun Jun  7 18:44:28 2020
Timers Off: Sun Jun  7 18:45:15 2020

Wall Time:       47.25 seconds

                                                       Time (seconds)
Module                                       User      System        Wall        Calls

--------------------------------------------------------------------------------------

**************************************************************************************

Host: adabbott

Timers On : Sun Jun  7 18:47:03 2020
Timers Off: Sun Jun  7 18:47:04 2020

Wall Time:        0.80 seconds

                                                       Time (seconds)
Module                                       User      System        Wall        Calls

--------------------------------------------------------------------------------------

**************************************************************************************

Host: adabbott

Timers On : Sun Jun  7 18:50:20 2020
Timers Off: Sun Jun  7 18:50:21 2020

Wall Time:        0.80 seconds

                                                       Time (seconds)
Module                                       User      System        Wall        Calls

--------------------------------------------------------------------------------------

**************************************************************************************

Host: adabbott

Timers On : Sun Jun  7 18:53:11 2020
Timers Off: Sun Jun  7 18:53:11 2020

Wall Time:        0.81 seconds

                                                       Time (seconds)
Module                                       User      System        Wall        Calls

--------------------------------------------------------------------------------------

**************************************************************************************

Host: adabbott

Timers On : Sun Jun  7 18:53:48 2020
Timers Off: Sun Jun  7 18:53:49 2020

Wall Time:        0.80 seconds

                                                       Time (seconds)
Module                                       User      System        Wall        Calls

--------------------------------------------------------------------------------------

**************************************************************************************

Host: adabbott

Timers On : Sun Jun  7 18:55:28 2020
Timers Off: Sun Jun  7 18:55:29 2020

Wall Time:        0.81 seconds

                                                       Time (seconds)
Module                                       User      System        Wall        Calls

--------------------------------------------------------------------------------------

**************************************************************************************

Host: adabbott

Timers On : Sun Jun  7 18:55:39 2020
Timers Off: Sun Jun  7 18:55:40 2020

Wall Time:        0.80 seconds

                                                       Time (seconds)
Module                                       User      System        Wall        Calls

--------------------------------------------------------------------------------------

**************************************************************************************

Host: adabbott

Timers On : Sun Jun  7 18:56:30 2020
Timers Off: Sun Jun  7 18:56:30 2020

Wall Time:        0.80 seconds

                                                       Time (seconds)
Module                                       User      System        Wall        Calls

--------------------------------------------------------------------------------------

**************************************************************************************

Host: adabbott

Timers On : Sun Jun  7 22:21:10 2020
Timers Off: Sun Jun  7 22:21:10 2020

Wall Time:        0.32 seconds

                                                       Time (seconds)
Module                                       User      System        Wall        Calls

--------------------------------------------------------------------------------------

**************************************************************************************

Host: adabbott

Timers On : Sun Jun  7 22:21:16 2020
Timers Off: Sun Jun  7 22:21:17 2020

Wall Time:        0.81 seconds

                                                       Time (seconds)
Module                                       User      System        Wall        Calls

--------------------------------------------------------------------------------------

**************************************************************************************

Host: adabbott

Timers On : Sun Jun  7 22:21:50 2020
Timers Off: Sun Jun  7 22:21:51 2020

Wall Time:        0.81 seconds

                                                       Time (seconds)
Module                                       User      System        Wall        Calls

--------------------------------------------------------------------------------------

**************************************************************************************

Host: adabbott

Timers On : Sun Jun  7 22:22:28 2020
Timers Off: Sun Jun  7 22:22:29 2020

Wall Time:        0.85 seconds

                                                       Time (seconds)
Module                                       User      System        Wall        Calls

--------------------------------------------------------------------------------------

**************************************************************************************

Host: adabbott

Timers On : Sun Jun  7 22:22:43 2020
Timers Off: Sun Jun  7 22:23:44 2020

Wall Time:       61.12 seconds

                                                       Time (seconds)
Module                                       User      System        Wall        Calls

--------------------------------------------------------------------------------------

**************************************************************************************

Host: adabbott

Timers On : Sun Jun  7 22:24:03 2020
Timers Off: Sun Jun  7 22:24:50 2020

Wall Time:       47.37 seconds

                                                       Time (seconds)
Module                                       User      System        Wall        Calls

--------------------------------------------------------------------------------------

**************************************************************************************

Host: adabbott

Timers On : Sun Jun  7 22:26:58 2020
Timers Off: Sun Jun  7 22:27:45 2020

Wall Time:       47.36 seconds

                                                       Time (seconds)
Module                                       User      System        Wall        Calls

--------------------------------------------------------------------------------------

**************************************************************************************

Host: adabbott

Timers On : Sun Jun  7 22:29:15 2020
Timers Off: Sun Jun  7 22:29:15 2020

Wall Time:        0.81 seconds

                                                       Time (seconds)
Module                                       User      System        Wall        Calls

--------------------------------------------------------------------------------------

**************************************************************************************

Host: adabbott

Timers On : Sun Jun  7 22:29:25 2020
Timers Off: Sun Jun  7 22:29:26 2020

Wall Time:        0.85 seconds

                                                       Time (seconds)
Module                                       User      System        Wall        Calls

--------------------------------------------------------------------------------------

**************************************************************************************

Host: adabbott

Timers On : Sun Jun  7 22:31:46 2020
Timers Off: Sun Jun  7 22:31:46 2020

Wall Time:        0.85 seconds

                                                       Time (seconds)
Module                                       User      System        Wall        Calls

--------------------------------------------------------------------------------------

**************************************************************************************

Host: adabbott

Timers On : Sun Jun  7 22:35:01 2020
Timers Off: Sun Jun  7 22:35:02 2020

Wall Time:        0.85 seconds

                                                       Time (seconds)
Module                                       User      System        Wall        Calls

--------------------------------------------------------------------------------------

**************************************************************************************

Host: adabbott

Timers On : Sun Jun  7 22:35:44 2020
Timers Off: Sun Jun  7 22:35:45 2020

Wall Time:        0.85 seconds

                                                       Time (seconds)
Module                                       User      System        Wall        Calls

--------------------------------------------------------------------------------------

**************************************************************************************

Host: adabbott

Timers On : Sun Jun  7 22:36:03 2020
Timers Off: Sun Jun  7 22:36:04 2020

Wall Time:        0.86 seconds

                                                       Time (seconds)
Module                                       User      System        Wall        Calls

--------------------------------------------------------------------------------------

**************************************************************************************

Host: adabbott

Timers On : Sun Jun  7 22:36:15 2020
Timers Off: Sun Jun  7 22:36:15 2020

Wall Time:        0.86 seconds

                                                       Time (seconds)
Module                                       User      System        Wall        Calls

--------------------------------------------------------------------------------------

**************************************************************************************

Host: adabbott

Timers On : Sun Jun  7 22:36:43 2020
Timers Off: Sun Jun  7 22:36:44 2020

Wall Time:        0.86 seconds

                                                       Time (seconds)
Module                                       User      System        Wall        Calls

--------------------------------------------------------------------------------------

**************************************************************************************

Host: adabbott

Timers On : Sun Jun  7 22:40:21 2020
Timers Off: Sun Jun  7 22:40:22 2020

Wall Time:        0.86 seconds

                                                       Time (seconds)
Module                                       User      System        Wall        Calls

--------------------------------------------------------------------------------------

**************************************************************************************

Host: adabbott

Timers On : Sun Jun  7 22:43:31 2020
Timers Off: Sun Jun  7 22:43:32 2020

Wall Time:        0.81 seconds

                                                       Time (seconds)
Module                                       User      System        Wall        Calls

--------------------------------------------------------------------------------------

**************************************************************************************

Host: adabbott

Timers On : Sun Jun  7 22:54:52 2020
Timers Off: Sun Jun  7 22:54:54 2020

Wall Time:        1.96 seconds

                                                       Time (seconds)
Module                                       User      System        Wall        Calls

--------------------------------------------------------------------------------------

**************************************************************************************

Host: adabbott

Timers On : Sun Jun  7 22:55:12 2020
Timers Off: Sun Jun  7 22:55:13 2020

Wall Time:        0.82 seconds

                                                       Time (seconds)
Module                                       User      System        Wall        Calls

--------------------------------------------------------------------------------------

**************************************************************************************

Host: adabbott

Timers On : Sun Jun  7 22:55:26 2020
Timers Off: Sun Jun  7 22:55:27 2020

Wall Time:        0.81 seconds

                                                       Time (seconds)
Module                                       User      System        Wall        Calls

--------------------------------------------------------------------------------------

**************************************************************************************

Host: adabbott

Timers On : Sun Jun  7 22:55:37 2020
Timers Off: Sun Jun  7 22:55:38 2020

Wall Time:        0.82 seconds

                                                       Time (seconds)
Module                                       User      System        Wall        Calls

--------------------------------------------------------------------------------------

**************************************************************************************

Host: adabbott

Timers On : Sun Jun  7 22:56:30 2020
Timers Off: Sun Jun  7 22:56:31 2020

Wall Time:        0.81 seconds

                                                       Time (seconds)
Module                                       User      System        Wall        Calls

--------------------------------------------------------------------------------------

**************************************************************************************

Host: adabbott

Timers On : Sun Jun  7 22:56:40 2020
Timers Off: Sun Jun  7 22:56:41 2020

Wall Time:        0.81 seconds

                                                       Time (seconds)
Module                                       User      System        Wall        Calls

--------------------------------------------------------------------------------------

**************************************************************************************

Host: adabbott

Timers On : Sun Jun  7 22:57:08 2020
Timers Off: Sun Jun  7 22:57:09 2020

Wall Time:        0.82 seconds

                                                       Time (seconds)
Module                                       User      System        Wall        Calls

--------------------------------------------------------------------------------------

**************************************************************************************

Host: adabbott

Timers On : Sun Jun  7 22:57:55 2020
Timers Off: Sun Jun  7 22:57:55 2020

Wall Time:        0.82 seconds

                                                       Time (seconds)
Module                                       User      System        Wall        Calls

--------------------------------------------------------------------------------------

**************************************************************************************

Host: adabbott

Timers On : Sun Jun  7 22:58:02 2020
Timers Off: Sun Jun  7 22:58:03 2020

Wall Time:        0.85 seconds

                                                       Time (seconds)
Module                                       User      System        Wall        Calls

--------------------------------------------------------------------------------------

**************************************************************************************

Host: adabbott

Timers On : Sun Jun  7 22:58:18 2020
Timers Off: Sun Jun  7 22:58:19 2020

Wall Time:        0.85 seconds

                                                       Time (seconds)
Module                                       User      System        Wall        Calls

--------------------------------------------------------------------------------------

**************************************************************************************

Host: adabbott

Timers On : Sun Jun  7 23:01:27 2020
Timers Off: Sun Jun  7 23:01:28 2020

Wall Time:        0.85 seconds

                                                       Time (seconds)
Module                                       User      System        Wall        Calls

--------------------------------------------------------------------------------------

**************************************************************************************

Host: adabbott

Timers On : Sun Jun  7 23:01:42 2020
Timers Off: Sun Jun  7 23:01:43 2020

Wall Time:        0.85 seconds

                                                       Time (seconds)
Module                                       User      System        Wall        Calls

--------------------------------------------------------------------------------------

**************************************************************************************

Host: adabbott

Timers On : Sun Jun  7 23:09:33 2020
Timers Off: Sun Jun  7 23:10:09 2020

Wall Time:       35.77 seconds

                                                       Time (seconds)
Module                                       User      System        Wall        Calls

--------------------------------------------------------------------------------------

**************************************************************************************

Host: adabbott

Timers On : Sun Jun  7 23:28:12 2020
Timers Off: Sun Jun  7 23:28:13 2020

Wall Time:        0.86 seconds

                                                       Time (seconds)
Module                                       User      System        Wall        Calls

--------------------------------------------------------------------------------------

**************************************************************************************

Host: adabbott

Timers On : Sun Jun  7 23:29:04 2020
Timers Off: Sun Jun  7 23:29:05 2020

Wall Time:        0.88 seconds

                                                       Time (seconds)
Module                                       User      System        Wall        Calls

--------------------------------------------------------------------------------------

**************************************************************************************

Host: adabbott

Timers On : Sun Jun  7 23:31:59 2020
Timers Off: Sun Jun  7 23:32:09 2020

Wall Time:        9.41 seconds

                                                       Time (seconds)
Module                                       User      System        Wall        Calls

--------------------------------------------------------------------------------------

**************************************************************************************

Host: adabbott

Timers On : Sun Jun  7 23:35:03 2020
Timers Off: Sun Jun  7 23:35:04 2020

Wall Time:        1.04 seconds

                                                       Time (seconds)
Module                                       User      System        Wall        Calls

--------------------------------------------------------------------------------------

**************************************************************************************

Host: adabbott

Timers On : Sun Jun  7 23:35:32 2020
Timers Off: Sun Jun  7 23:35:33 2020

Wall Time:        1.03 seconds

                                                       Time (seconds)
Module                                       User      System        Wall        Calls

--------------------------------------------------------------------------------------

**************************************************************************************

Host: adabbott

Timers On : Sun Jun  7 23:35:38 2020
Timers Off: Sun Jun  7 23:36:48 2020

Wall Time:       69.21 seconds

                                                       Time (seconds)
Module                                       User      System        Wall        Calls

--------------------------------------------------------------------------------------

**************************************************************************************

Host: adabbott

Timers On : Sun Jun  7 23:45:00 2020
Timers Off: Sun Jun  7 23:46:12 2020

Wall Time:       72.04 seconds

                                                       Time (seconds)
Module                                       User      System        Wall        Calls

--------------------------------------------------------------------------------------

**************************************************************************************

Host: adabbott

Timers On : Mon Jun  8 13:57:25 2020
Timers Off: Mon Jun  8 13:57:26 2020

Wall Time:        0.91 seconds

                                                       Time (seconds)
Module                                       User      System        Wall        Calls

--------------------------------------------------------------------------------------

**************************************************************************************

Host: adabbott

Timers On : Mon Jun  8 15:03:35 2020
Timers Off: Mon Jun  8 15:03:40 2020

Wall Time:        5.43 seconds

                                                       Time (seconds)
Module                                       User      System        Wall        Calls

--------------------------------------------------------------------------------------

**************************************************************************************
