
    -----------------------------------------------------------------------
          Psi4: An Open-Source Ab Initio Electronic Structure Package
                               Psi4 1.3.2 release

                         Git: Rev {HEAD} ecbda83 


    R. M. Parrish, L. A. Burns, D. G. A. Smith, A. C. Simmonett,
    A. E. DePrince III, E. G. Hohenstein, U. Bozkaya, A. Yu. Sokolov,
    R. Di Remigio, R. M. Richard, J. F. Gonthier, A. M. James,
    H. R. McAlexander, A. Kumar, M. Saitow, X. Wang, B. P. Pritchard,
    P. Verma, H. F. Schaefer III, K. Patkowski, R. A. King, E. F. Valeev,
    F. A. Evangelista, J. M. Turney, T. D. Crawford, and C. D. Sherrill,
    J. Chem. Theory Comput. 13(7) pp 3185--3197 (2017).
    (doi: 10.1021/acs.jctc.7b00174)


                         Additional Contributions by
    P. Kraus, H. Kruse, M. H. Lechner, M. C. Schieber, R. A. Shaw,
    A. Alenaizan, R. Galvelis, Z. L. Glick, S. Lehtola, and J. P. Misiewicz

    -----------------------------------------------------------------------


    Psi4 started on: Tuesday, 03 September 2019 12:03PM

    Process ID: 19963
    Host:       adabbott
    PSIDATADIR: /home/adabbott/anaconda3/envs/autodiff/share/psi4
    Memory:     500.0 MiB
    Threads:    1
    
  ==> Input File <==

--------------------------------------------------------------------------
import psi4
import numpy as np

basis {
assign s_orb
[ s_orb ]
cartesian
****
H     0
S   1   1.00
      0.50000000000      1.0000000000
S   1   1.00
      0.40000000000      1.0000000000
S   1   1.00
      0.30000000000      1.0000000000
S   1   1.00
      0.20000000000      1.0000000000
S   1   1.00
      0.10000000000      1.0000000000
S   1   1.00
      0.05000000000      1.0000000000
S   1   1.00
      0.01000000000      1.0000000000
S   1   1.00
      0.00100000000      1.0000000000
****
}

molecule h2o {
symmetry c1
units bohr
0 1
H 0.000000000000 0.000000000000 -0.849220457955
H 0.000000000000 0.000000000000  0.849220457955
}

set scf_type pk
set puream false
set e_convergence 10
set d_convergence 10
e, wfn = gradient('hf', return_wfn=True, dertype='gradient')

print(wfn.energy())
print(np.asarray(wfn.gradient()))

mol = wfn.molecule()
bs = wfn.basisset()
basis = psi4.core.BasisSet.build(mol)
mints = psi4.core.MintsHelper(basis)
D = np.asarray(wfn.Da())
np.save('D4', D)


--------------------------------------------------------------------------
gradient() will perform analytic gradient computation.

*** tstart() called on adabbott
*** at Tue Sep  3 12:03:51 2019

   => Loading Basis Set <=

    Name: ANONYMOUS9A6D9B07
    Role: ORBITAL
    Keyword: BASIS
    atoms 1-2 entry H          line     5 inputblock s_orb 


         ---------------------------------------------------------
                                   SCF
               by Justin Turney, Rob Parrish, Andy Simmonett
                          and Daniel G. A. Smith
                              RHF Reference
                        1 Threads,    500 MiB Core
         ---------------------------------------------------------

  ==> Geometry <==

    Molecular point group: c1
    Full point group: D_inf_h

    Geometry (in Bohr), charge = 0, multiplicity = 1:

       Center              X                  Y                   Z               Mass       
    ------------   -----------------  -----------------  -----------------  -----------------
         H            0.000000000000     0.000000000000    -0.849220457955     1.007825032230
         H            0.000000000000     0.000000000000     0.849220457955     1.007825032230

  Running in c1 symmetry.

  Rotational constants: A = ************  B =     41.41314  C =     41.41314 [cm^-1]
  Rotational constants: A = ************  B = 1241534.81138  C = 1241534.81138 [MHz]
  Nuclear repulsion =    0.588775264792897

  Charge       = 0
  Multiplicity = 1
  Electrons    = 2
  Nalpha       = 1
  Nbeta        = 1

  ==> Algorithm <==

  SCF Algorithm Type is PK.
  DIIS enabled.
  MOM disabled.
  Fractional occupation disabled.
  Guess Type is SAD.
  Energy threshold   = 1.00e-10
  Density threshold  = 1.00e-10
  Integral threshold = 0.00e+00

  ==> Primary Basis <==

  Basis Set: ANONYMOUS9A6D9B07
    Blend: S_ORB
    Number of shells: 16
    Number of basis function: 16
    Number of Cartesian functions: 16
    Spherical Harmonics?: false
    Max angular momentum: 0

  ==> Pre-Iterations <==

   -------------------------------------------------------
    Irrep   Nso     Nmo     Nalpha   Nbeta   Ndocc  Nsocc
   -------------------------------------------------------
     A         16      16       0       0       0       0
   -------------------------------------------------------
    Total      16      16       1       1       1       0
   -------------------------------------------------------

  ==> Integral Setup <==

  Using in-core PK algorithm.
   Calculation information:
      Number of atoms:                   2
      Number of AO shells:              16
      Number of primitives:             16
      Number of atomic orbitals:        16
      Number of basis functions:        16

      Integral cutoff                 1.00e-12
      Number of threads:                 1

  Performing in-core PK
  Using 18632 doubles for integral storage.
  We computed 9316 shell quartets total.
  Whereas there are 9316 unique shell quartets.

  ==> DiskJK: Disk-Based J/K Matrices <==

    J tasked:                  Yes
    K tasked:                  Yes
    wK tasked:                  No
    Memory [MiB]:              375
    Schwarz Cutoff:          1E-12

    OpenMP threads:              1

  Minimum eigenvalue in the overlap matrix is 5.1105580764E-06.
  Using Symmetric Orthogonalization.

  SCF Guess: Superposition of Atomic Densities via on-the-fly atomic UHF.

  ==> Iterations <==

                        Total Energy        Delta E     RMS |[F,P]|

   @RHF iter SAD:    -0.81404417922622   -8.14044e-01   0.00000e+00 
   @RHF iter   1:    -1.06558402690171   -2.51540e-01   2.80214e-03 DIIS
   @RHF iter   2:    -1.06869704395089   -3.11302e-03   6.31119e-04 DIIS
   @RHF iter   3:    -1.06888591762196   -1.88874e-04   5.12246e-05 DIIS
   @RHF iter   4:    -1.06888692764713   -1.01003e-06   2.26076e-06 DIIS
   @RHF iter   5:    -1.06888692906044   -1.41331e-09   2.42516e-07 DIIS
   @RHF iter   6:    -1.06888692909336   -3.29186e-11   1.04328e-08 DIIS
   @RHF iter   7:    -1.06888692909260    7.57616e-13   2.46405e-10 DIIS
   @RHF iter   8:    -1.06888692908764    4.95870e-12   1.55428e-11 DIIS
  Energy and wave function converged.


  ==> Post-Iterations <==

    Orbital Energies [Eh]
    ---------------------

    Doubly Occupied:                                                      

       1A     -0.537289  

    Virtual:                                                              

       2A      0.001656     3A      0.002470     4A      0.021077  
       5A      0.023463     6A      0.092139     7A      0.117227  
       8A      0.227530     9A      0.387873    10A      0.531574  
      11A      0.899656    12A      1.046725    13A      1.920310  
      14A      2.055196    15A      3.487248    16A      3.488073  

    Final Occupation by Irrep:
              A 
    DOCC [     1 ]

  @RHF Final Energy:    -1.06888692908764

   => Energetics <=

    Nuclear Repulsion Energy =              0.5887752647928965
    One-Electron Energy =                  -2.2407457193387366
    Two-Electron Energy =                   0.5830835254581990
    Total Energy =                         -1.0688869290876410

Computation Completed


Properties will be evaluated at   0.000000,   0.000000,   0.000000 [a0]

Properties computed using the SCF density matrix

  Nuclear Dipole Moment: [e a0]
     X:     0.0000      Y:     0.0000      Z:     0.0000

  Electronic Dipole Moment: [e a0]
     X:     0.0000      Y:     0.0000      Z:    -0.0000

  Dipole Moment: [e a0]
     X:     0.0000      Y:     0.0000      Z:    -0.0000     Total:     0.0000

  Dipole Moment: [D]
     X:     0.0000      Y:     0.0000      Z:    -0.0000     Total:     0.0000


*** tstop() called on adabbott at Tue Sep  3 12:03:51 2019
Module time:
	user time   =       0.21 seconds =       0.00 minutes
	system time =       0.01 seconds =       0.00 minutes
	total time  =          0 seconds =       0.00 minutes
Total time:
	user time   =       0.21 seconds =       0.00 minutes
	system time =       0.01 seconds =       0.00 minutes
	total time  =          0 seconds =       0.00 minutes

*** tstart() called on adabbott
*** at Tue Sep  3 12:03:51 2019


         ------------------------------------------------------------
                                   SCF GRAD                          
                          Rob Parrish, Justin Turney,                
                       Andy Simmonett, and Alex Sokolov              
         ------------------------------------------------------------

  ==> Geometry <==

    Molecular point group: c1
    Full point group: D_inf_h

    Geometry (in Bohr), charge = 0, multiplicity = 1:

       Center              X                  Y                   Z               Mass       
    ------------   -----------------  -----------------  -----------------  -----------------
         H            0.000000000000     0.000000000000    -0.849220457955     1.007825032230
         H            0.000000000000     0.000000000000     0.849220457955     1.007825032230

  Nuclear repulsion =    0.588775264792897

  ==> Basis Set <==

  Basis Set: ANONYMOUS9A6D9B07
    Blend: S_ORB
    Number of shells: 16
    Number of basis function: 16
    Number of Cartesian functions: 16
    Spherical Harmonics?: false
    Max angular momentum: 0

  ==> DirectJKGrad: Integral-Direct SCF Gradients <==

    Gradient:                    1
    J tasked:                  Yes
    K tasked:                  Yes
    wK tasked:                  No
    Integrals threads:           1
    Schwarz Cutoff:          0E+00


  -Total Gradient:
     Atom            X                  Y                   Z
    ------   -----------------  -----------------  -----------------
       1        0.000000000000     0.000000000000    -0.056095309249
       2        0.000000000000     0.000000000000     0.056095309254


*** tstop() called on adabbott at Tue Sep  3 12:03:51 2019
Module time:
	user time   =       0.04 seconds =       0.00 minutes
	system time =       0.00 seconds =       0.00 minutes
	total time  =          0 seconds =       0.00 minutes
Total time:
	user time   =       0.25 seconds =       0.00 minutes
	system time =       0.01 seconds =       0.00 minutes
	total time  =          0 seconds =       0.00 minutes
   => Loading Basis Set <=

    Name: ANONYMOUS9A6D9B07
    Role: ORBITAL
    Keyword: None
    atoms 1-2 entry H          line     5 inputblock s_orb 


    Psi4 stopped on: Tuesday, 03 September 2019 12:03PM
    Psi4 wall time for execution: 0:00:00.31

*** Psi4 exiting successfully. Buy a developer a beer!
