
Host: adabbott

Timers On : Mon Feb  3 13:42:40 2020
Timers Off: Mon Feb  3 13:42:41 2020

Wall Time:        0.58 seconds

                                                       Time (seconds)
Module                                       User      System        Wall        Calls

--------------------------------------------------------------------------------------

**************************************************************************************

Host: adabbott

Timers On : Mon Feb  3 13:42:47 2020
Timers Off: Mon Feb  3 13:42:48 2020

Wall Time:        0.61 seconds

                                                       Time (seconds)
Module                                       User      System        Wall        Calls

--------------------------------------------------------------------------------------

**************************************************************************************

Host: adabbott

Timers On : Mon Feb  3 13:42:56 2020
Timers Off: Mon Feb  3 13:42:58 2020

Wall Time:        1.76 seconds

                                                       Time (seconds)
Module                                       User      System        Wall        Calls

--------------------------------------------------------------------------------------

**************************************************************************************
