
Host: adabbott

Timers On : Thu Aug 20 12:05:19 2020
Timers Off: Thu Aug 20 12:05:19 2020

Wall Time:        0.26 seconds

                                                       Time (seconds)
Module                                       User      System        Wall        Calls

--------------------------------------------------------------------------------------

**************************************************************************************

Host: adabbott

Timers On : Thu Aug 20 12:05:48 2020
Timers Off: Thu Aug 20 12:05:48 2020

Wall Time:        0.26 seconds

                                                       Time (seconds)
Module                                       User      System        Wall        Calls

--------------------------------------------------------------------------------------

**************************************************************************************

Host: adabbott

Timers On : Thu Aug 20 12:05:59 2020
Timers Off: Thu Aug 20 12:06:00 2020

Wall Time:        0.29 seconds

                                                       Time (seconds)
Module                                       User      System        Wall        Calls

--------------------------------------------------------------------------------------

**************************************************************************************

Host: adabbott

Timers On : Thu Aug 20 12:06:15 2020
Timers Off: Thu Aug 20 12:06:16 2020

Wall Time:        0.32 seconds

                                                       Time (seconds)
Module                                       User      System        Wall        Calls

--------------------------------------------------------------------------------------

**************************************************************************************

Host: adabbott

Timers On : Thu Aug 20 12:06:42 2020
Timers Off: Thu Aug 20 12:06:43 2020

Wall Time:        0.32 seconds

                                                       Time (seconds)
Module                                       User      System        Wall        Calls

--------------------------------------------------------------------------------------

**************************************************************************************

Host: adabbott

Timers On : Thu Aug 20 12:06:50 2020
Timers Off: Thu Aug 20 12:06:51 2020

Wall Time:        0.32 seconds

                                                       Time (seconds)
Module                                       User      System        Wall        Calls

--------------------------------------------------------------------------------------

**************************************************************************************

Host: adabbott

Timers On : Thu Aug 20 12:06:58 2020
Timers Off: Thu Aug 20 12:07:14 2020

Wall Time:       16.32 seconds

                                                       Time (seconds)
Module                                       User      System        Wall        Calls

--------------------------------------------------------------------------------------

**************************************************************************************

Host: adabbott

Timers On : Thu Aug 20 12:08:29 2020
Timers Off: Thu Aug 20 12:08:46 2020

Wall Time:       17.31 seconds

                                                       Time (seconds)
Module                                       User      System        Wall        Calls

--------------------------------------------------------------------------------------

**************************************************************************************

Host: adabbott

Timers On : Thu Aug 20 12:09:02 2020
Timers Off: Thu Aug 20 12:09:22 2020

Wall Time:       20.05 seconds

                                                       Time (seconds)
Module                                       User      System        Wall        Calls

--------------------------------------------------------------------------------------

**************************************************************************************

Host: adabbott

Timers On : Thu Aug 20 12:09:34 2020
Timers Off: Thu Aug 20 12:09:54 2020

Wall Time:       20.30 seconds

                                                       Time (seconds)
Module                                       User      System        Wall        Calls

--------------------------------------------------------------------------------------

**************************************************************************************

Host: adabbott

Timers On : Thu Aug 20 12:10:47 2020
Timers Off: Thu Aug 20 12:11:06 2020

Wall Time:       18.59 seconds

                                                       Time (seconds)
Module                                       User      System        Wall        Calls

--------------------------------------------------------------------------------------

**************************************************************************************

Host: adabbott

Timers On : Thu Aug 20 12:12:30 2020
Timers Off: Thu Aug 20 12:13:06 2020

Wall Time:       36.19 seconds

                                                       Time (seconds)
Module                                       User      System        Wall        Calls

--------------------------------------------------------------------------------------

**************************************************************************************

Host: adabbott

Timers On : Thu Aug 20 12:14:55 2020
Timers Off: Thu Aug 20 12:15:50 2020

Wall Time:       55.36 seconds

                                                       Time (seconds)
Module                                       User      System        Wall        Calls

--------------------------------------------------------------------------------------

**************************************************************************************

Host: adabbott

Timers On : Thu Aug 20 12:16:55 2020
Timers Off: Thu Aug 20 12:17:52 2020

Wall Time:       56.82 seconds

                                                       Time (seconds)
Module                                       User      System        Wall        Calls

--------------------------------------------------------------------------------------

**************************************************************************************

Host: adabbott

Timers On : Thu Aug 20 12:23:22 2020
Timers Off: Thu Aug 20 12:24:15 2020

Wall Time:       52.89 seconds

                                                       Time (seconds)
Module                                       User      System        Wall        Calls

--------------------------------------------------------------------------------------

**************************************************************************************

Host: adabbott

Timers On : Thu Aug 20 12:29:02 2020
Timers Off: Thu Aug 20 12:29:55 2020

Wall Time:       52.78 seconds

                                                       Time (seconds)
Module                                       User      System        Wall        Calls

--------------------------------------------------------------------------------------

**************************************************************************************

Host: adabbott

Timers On : Thu Aug 20 12:32:50 2020
Timers Off: Thu Aug 20 12:34:53 2020

Wall Time:      123.73 seconds

                                                       Time (seconds)
Module                                       User      System        Wall        Calls

--------------------------------------------------------------------------------------

**************************************************************************************

Host: adabbott

Timers On : Thu Aug 20 12:37:48 2020
Timers Off: Thu Aug 20 12:38:41 2020

Wall Time:       52.97 seconds

                                                       Time (seconds)
Module                                       User      System        Wall        Calls

--------------------------------------------------------------------------------------

**************************************************************************************

Host: adabbott

Timers On : Thu Aug 20 12:39:00 2020
Timers Off: Thu Aug 20 12:39:53 2020

Wall Time:       53.49 seconds

                                                       Time (seconds)
Module                                       User      System        Wall        Calls

--------------------------------------------------------------------------------------

**************************************************************************************

Host: adabbott

Timers On : Thu Aug 20 12:39:58 2020
Timers Off: Thu Aug 20 12:40:57 2020

Wall Time:       58.70 seconds

                                                       Time (seconds)
Module                                       User      System        Wall        Calls

--------------------------------------------------------------------------------------

**************************************************************************************

Host: adabbott

Timers On : Thu Aug 20 12:41:10 2020
Timers Off: Thu Aug 20 12:43:18 2020

Wall Time:      128.83 seconds

                                                       Time (seconds)
Module                                       User      System        Wall        Calls

--------------------------------------------------------------------------------------

**************************************************************************************

Host: adabbott

Timers On : Thu Aug 20 12:45:28 2020
Timers Off: Thu Aug 20 12:46:21 2020

Wall Time:       53.19 seconds

                                                       Time (seconds)
Module                                       User      System        Wall        Calls

--------------------------------------------------------------------------------------

**************************************************************************************

Host: adabbott

Timers On : Thu Aug 20 12:49:31 2020
Timers Off: Thu Aug 20 12:51:01 2020

Wall Time:       89.78 seconds

                                                       Time (seconds)
Module                                       User      System        Wall        Calls

--------------------------------------------------------------------------------------

**************************************************************************************

Host: adabbott

Timers On : Thu Aug 20 12:59:28 2020
Timers Off: Thu Aug 20 13:00:22 2020

Wall Time:       53.87 seconds

                                                       Time (seconds)
Module                                       User      System        Wall        Calls

--------------------------------------------------------------------------------------

**************************************************************************************

Host: adabbott

Timers On : Thu Aug 20 13:13:01 2020
Timers Off: Thu Aug 20 13:13:18 2020

Wall Time:       17.10 seconds

                                                       Time (seconds)
Module                                       User      System        Wall        Calls

--------------------------------------------------------------------------------------

**************************************************************************************

Host: adabbott

Timers On : Thu Aug 20 13:14:37 2020
Timers Off: Thu Aug 20 13:14:54 2020

Wall Time:       16.79 seconds

                                                       Time (seconds)
Module                                       User      System        Wall        Calls

--------------------------------------------------------------------------------------

**************************************************************************************

Host: adabbott

Timers On : Thu Aug 20 13:16:14 2020
Timers Off: Thu Aug 20 13:16:32 2020

Wall Time:       17.49 seconds

                                                       Time (seconds)
Module                                       User      System        Wall        Calls

--------------------------------------------------------------------------------------

**************************************************************************************

Host: adabbott

Timers On : Thu Aug 20 13:18:41 2020
Timers Off: Thu Aug 20 13:19:32 2020

Wall Time:       51.47 seconds

                                                       Time (seconds)
Module                                       User      System        Wall        Calls

--------------------------------------------------------------------------------------

**************************************************************************************

Host: adabbott

Timers On : Thu Aug 20 13:21:35 2020
Timers Off: Thu Aug 20 13:22:26 2020

Wall Time:       51.01 seconds

                                                       Time (seconds)
Module                                       User      System        Wall        Calls

--------------------------------------------------------------------------------------

**************************************************************************************

Host: adabbott

Timers On : Thu Aug 20 13:24:46 2020
Timers Off: Thu Aug 20 13:25:37 2020

Wall Time:       51.16 seconds

                                                       Time (seconds)
Module                                       User      System        Wall        Calls

--------------------------------------------------------------------------------------

**************************************************************************************

Host: adabbott

Timers On : Thu Aug 20 13:28:49 2020
Timers Off: Thu Aug 20 13:30:15 2020

Wall Time:       86.27 seconds

                                                       Time (seconds)
Module                                       User      System        Wall        Calls

--------------------------------------------------------------------------------------

**************************************************************************************

Host: adabbott

Timers On : Thu Aug 20 13:34:17 2020
Timers Off: Thu Aug 20 13:35:43 2020

Wall Time:       86.15 seconds

                                                       Time (seconds)
Module                                       User      System        Wall        Calls

--------------------------------------------------------------------------------------

**************************************************************************************

Host: adabbott

Timers On : Thu Aug 20 13:39:33 2020
Timers Off: Thu Aug 20 13:40:41 2020

Wall Time:       68.13 seconds

                                                       Time (seconds)
Module                                       User      System        Wall        Calls

--------------------------------------------------------------------------------------

**************************************************************************************

Host: adabbott

Timers On : Thu Aug 20 13:42:46 2020
Timers Off: Thu Aug 20 13:44:29 2020

Wall Time:      102.52 seconds

                                                       Time (seconds)
Module                                       User      System        Wall        Calls

--------------------------------------------------------------------------------------

**************************************************************************************

Host: adabbott

Timers On : Thu Aug 20 13:44:46 2020
Timers Off: Thu Aug 20 13:46:27 2020

Wall Time:      101.21 seconds

                                                       Time (seconds)
Module                                       User      System        Wall        Calls

--------------------------------------------------------------------------------------

**************************************************************************************

Host: adabbott

Timers On : Thu Aug 20 13:46:17 2020
Timers Off: Thu Aug 20 13:46:51 2020

Wall Time:       34.10 seconds

                                                       Time (seconds)
Module                                       User      System        Wall        Calls

--------------------------------------------------------------------------------------

**************************************************************************************

Host: adabbott

Timers On : Thu Aug 20 13:50:20 2020
Timers Off: Thu Aug 20 13:50:20 2020

Wall Time:        0.46 seconds

                                                       Time (seconds)
Module                                       User      System        Wall        Calls

--------------------------------------------------------------------------------------

**************************************************************************************

Host: adabbott

Timers On : Thu Aug 20 13:51:43 2020
Timers Off: Thu Aug 20 13:52:34 2020

Wall Time:       50.22 seconds

                                                       Time (seconds)
Module                                       User      System        Wall        Calls

--------------------------------------------------------------------------------------

**************************************************************************************

Host: adabbott

Timers On : Thu Aug 20 13:53:05 2020
Timers Off: Thu Aug 20 13:53:07 2020

Wall Time:        1.45 seconds

                                                       Time (seconds)
Module                                       User      System        Wall        Calls

--------------------------------------------------------------------------------------

**************************************************************************************

Host: adabbott

Timers On : Thu Aug 20 13:53:20 2020
Timers Off: Thu Aug 20 13:53:21 2020

Wall Time:        1.50 seconds

                                                       Time (seconds)
Module                                       User      System        Wall        Calls

--------------------------------------------------------------------------------------

**************************************************************************************

Host: adabbott

Timers On : Thu Aug 20 13:54:05 2020
Timers Off: Thu Aug 20 13:54:08 2020

Wall Time:        2.23 seconds

                                                       Time (seconds)
Module                                       User      System        Wall        Calls

--------------------------------------------------------------------------------------

**************************************************************************************

Host: adabbott

Timers On : Thu Aug 20 13:55:50 2020
Timers Off: Thu Aug 20 13:55:52 2020

Wall Time:        1.52 seconds

                                                       Time (seconds)
Module                                       User      System        Wall        Calls

--------------------------------------------------------------------------------------

**************************************************************************************

Host: adabbott

Timers On : Thu Aug 20 13:57:27 2020
Timers Off: Thu Aug 20 13:58:34 2020

Wall Time:       66.97 seconds

                                                       Time (seconds)
Module                                       User      System        Wall        Calls

--------------------------------------------------------------------------------------

**************************************************************************************

Host: adabbott

Timers On : Thu Aug 20 14:25:30 2020
Timers Off: Thu Aug 20 14:25:34 2020

Wall Time:        4.72 seconds

                                                       Time (seconds)
Module                                       User      System        Wall        Calls

--------------------------------------------------------------------------------------

**************************************************************************************

Host: adabbott

Timers On : Thu Aug 20 14:26:15 2020
Timers Off: Thu Aug 20 14:26:20 2020

Wall Time:        4.81 seconds

                                                       Time (seconds)
Module                                       User      System        Wall        Calls

--------------------------------------------------------------------------------------

**************************************************************************************

Host: adabbott

Timers On : Thu Aug 20 14:27:15 2020
Timers Off: Thu Aug 20 14:27:20 2020

Wall Time:        5.17 seconds

                                                       Time (seconds)
Module                                       User      System        Wall        Calls

--------------------------------------------------------------------------------------

**************************************************************************************

Host: adabbott

Timers On : Thu Aug 20 15:33:58 2020
Timers Off: Thu Aug 20 15:34:49 2020

Wall Time:       51.27 seconds

                                                       Time (seconds)
Module                                       User      System        Wall        Calls

--------------------------------------------------------------------------------------

**************************************************************************************

Host: adabbott

Timers On : Thu Aug 20 15:36:39 2020
Timers Off: Thu Aug 20 15:38:35 2020

Wall Time:      115.81 seconds

                                                       Time (seconds)
Module                                       User      System        Wall        Calls

--------------------------------------------------------------------------------------

**************************************************************************************

Host: adabbott

Timers On : Thu Aug 20 15:40:55 2020
Timers Off: Thu Aug 20 15:41:01 2020

Wall Time:        5.33 seconds

                                                       Time (seconds)
Module                                       User      System        Wall        Calls

--------------------------------------------------------------------------------------

**************************************************************************************

Host: adabbott

Timers On : Thu Aug 20 15:44:47 2020
Timers Off: Thu Aug 20 15:46:45 2020

Wall Time:      118.25 seconds

                                                       Time (seconds)
Module                                       User      System        Wall        Calls

--------------------------------------------------------------------------------------

**************************************************************************************
