
    -----------------------------------------------------------------------
          Psi4: An Open-Source Ab Initio Electronic Structure Package
                               Psi4 1.3.2 release

                         Git: Rev {HEAD} ecbda83 


    R. M. Parrish, L. A. Burns, D. G. A. Smith, A. C. Simmonett,
    A. E. DePrince III, E. G. Hohenstein, U. Bozkaya, A. Yu. Sokolov,
    R. Di Remigio, R. M. Richard, J. F. Gonthier, A. M. James,
    H. R. McAlexander, A. Kumar, M. Saitow, X. Wang, B. P. Pritchard,
    P. Verma, H. F. Schaefer III, K. Patkowski, R. A. King, E. F. Valeev,
    F. A. Evangelista, J. M. Turney, T. D. Crawford, and C. D. Sherrill,
    J. Chem. Theory Comput. 13(7) pp 3185--3197 (2017).
    (doi: 10.1021/acs.jctc.7b00174)


                         Additional Contributions by
    P. Kraus, H. Kruse, M. H. Lechner, M. C. Schieber, R. A. Shaw,
    A. Alenaizan, R. Galvelis, Z. L. Glick, S. Lehtola, and J. P. Misiewicz

    -----------------------------------------------------------------------


    Psi4 started on: Sunday, 08 September 2019 08:56PM

    Process ID: 7010
    Host:       adabbott
    PSIDATADIR: /home/adabbott/anaconda3/envs/autodiff/share/psi4
    Memory:     500.0 MiB
    Threads:    1
    
  ==> Input File <==

--------------------------------------------------------------------------
import psi4
import numpy as np
np.set_printoptions(linewidth=300,precision=5)

basis {
assign s_orb
[ s_orb ]
cartesian
****
H     0
S   1   1.00
      0.50000000000      1.0000000000
S   1   1.00
      0.40000000000      1.0000000000
S   1   1.00
      0.30000000000      1.0000000000
S   1   1.00
      0.20000000000      1.0000000000
****
}

molecule h2o {
symmetry c1
units bohr
0 1
H 0.000000000000 0.000000000000 -0.849220457955
H 0.000000000000 0.000000000000  0.849220457955
}

set scf_type pk
set mp2_type conv
set cc_type conv
set puream false
set maxiter 20
set e_convergence 10
set d_convergence 10
e1, wfn1 = gradient('hf', return_wfn=True)
#e1, wfn1 = gradient('mp2', return_wfn=True)

mol = wfn1.molecule()
bs = wfn1.basisset()
basis = psi4.core.BasisSet.build(mol)
mints = psi4.core.MintsHelper(basis)
C = wfn1.Ca()
s = mints.ao_overlap() 
print(np.asarray(s))
sgrad = mints.ao_oei_deriv1('OVERLAP', 0)
print(np.asarray(sgrad[0]))
print(np.asarray(sgrad[1]))
print(np.asarray(sgrad[2]))
kgrad = mints.ao_oei_deriv1('KINETIC', 0)
print(np.asarray(kgrad[0]))
print(np.asarray(kgrad[1]))
print(np.asarray(kgrad[2]))
#sgrad = mints.mo_oei_deriv1('OVERLAP', 0, C, C)
#print(np.asarray(sgrad[0]))
#print(np.asarray(sgrad[1]))
#print(np.asarray(sgrad[2]))
#print(2.0 * np.einsum("ii->", np.asarray(sgrad[2])[:1,:1]) )

--------------------------------------------------------------------------
gradient() will perform analytic gradient computation.

*** tstart() called on adabbott
*** at Sun Sep  8 20:56:08 2019

   => Loading Basis Set <=

    Name: ANONYMOUS7737E7A3
    Role: ORBITAL
    Keyword: BASIS
    atoms 1-2 entry H          line     5 inputblock s_orb 


         ---------------------------------------------------------
                                   SCF
               by Justin Turney, Rob Parrish, Andy Simmonett
                          and Daniel G. A. Smith
                              RHF Reference
                        1 Threads,    500 MiB Core
         ---------------------------------------------------------

  ==> Geometry <==

    Molecular point group: c1
    Full point group: D_inf_h

    Geometry (in Bohr), charge = 0, multiplicity = 1:

       Center              X                  Y                   Z               Mass       
    ------------   -----------------  -----------------  -----------------  -----------------
         H            0.000000000000     0.000000000000    -0.849220457955     1.007825032230
         H            0.000000000000     0.000000000000     0.849220457955     1.007825032230

  Running in c1 symmetry.

  Rotational constants: A = ************  B =     41.41314  C =     41.41314 [cm^-1]
  Rotational constants: A = ************  B = 1241534.81138  C = 1241534.81138 [MHz]
  Nuclear repulsion =    0.588775264792897

  Charge       = 0
  Multiplicity = 1
  Electrons    = 2
  Nalpha       = 1
  Nbeta        = 1

  ==> Algorithm <==

  SCF Algorithm Type is PK.
  DIIS enabled.
  MOM disabled.
  Fractional occupation disabled.
  Guess Type is SAD.
  Energy threshold   = 1.00e-10
  Density threshold  = 1.00e-10
  Integral threshold = 0.00e+00

  ==> Primary Basis <==

  Basis Set: ANONYMOUS7737E7A3
    Blend: S_ORB
    Number of shells: 8
    Number of basis function: 8
    Number of Cartesian functions: 8
    Spherical Harmonics?: false
    Max angular momentum: 0

  ==> Pre-Iterations <==

   -------------------------------------------------------
    Irrep   Nso     Nmo     Nalpha   Nbeta   Ndocc  Nsocc
   -------------------------------------------------------
     A          8       8       0       0       0       0
   -------------------------------------------------------
    Total       8       8       1       1       1       0
   -------------------------------------------------------

  ==> Integral Setup <==

  Using in-core PK algorithm.
   Calculation information:
      Number of atoms:                   2
      Number of AO shells:               8
      Number of primitives:              8
      Number of atomic orbitals:         8
      Number of basis functions:         8

      Integral cutoff                 1.00e-12
      Number of threads:                 1

  Performing in-core PK
  Using 1332 doubles for integral storage.
  We computed 666 shell quartets total.
  Whereas there are 666 unique shell quartets.

  ==> DiskJK: Disk-Based J/K Matrices <==

    J tasked:                  Yes
    K tasked:                  Yes
    wK tasked:                  No
    Memory [MiB]:              375
    Schwarz Cutoff:          1E-12

    OpenMP threads:              1

  Minimum eigenvalue in the overlap matrix is 2.3933843387E-05.
  Using Symmetric Orthogonalization.

  SCF Guess: Superposition of Atomic Densities via on-the-fly atomic UHF.

  ==> Iterations <==

                        Total Energy        Delta E     RMS |[F,P]|

   @RHF iter SAD:    -0.80649974889810   -8.06500e-01   0.00000e+00 
   @RHF iter   1:    -1.05853361567199   -2.52034e-01   5.32087e-03 DIIS
   @RHF iter   2:    -1.06074868313435   -2.21507e-03   1.09611e-03 DIIS
   @RHF iter   3:    -1.06085946009664   -1.10777e-04   6.86829e-05 DIIS
   @RHF iter   4:    -1.06085978340036   -3.23304e-07   1.40086e-06 DIIS
   @RHF iter   5:    -1.06085978352666   -1.26304e-10   1.27117e-07 DIIS
   @RHF iter   6:    -1.06085978352754   -8.77964e-13   2.26269e-10 DIIS
   @RHF iter   7:    -1.06085978352767   -1.34115e-13   3.44655e-12 DIIS
  Energy and wave function converged.


  ==> Post-Iterations <==

    Orbital Energies [Eh]
    ---------------------

    Doubly Occupied:                                                      

       1A     -0.530531  

    Virtual:                                                              

       2A      0.178935     3A      0.337632     4A      0.593260  
       5A      1.298510     6A      1.563003     7A      2.865669  
       8A      2.970644  

    Final Occupation by Irrep:
              A 
    DOCC [     1 ]

  @RHF Final Energy:    -1.06085978352767

   => Energetics <=

    Nuclear Repulsion Energy =              0.5887752647928965
    One-Electron Energy =                  -2.2382084108240345
    Two-Electron Energy =                   0.5885733625034657
    Total Energy =                         -1.0608597835276723

Computation Completed


Properties will be evaluated at   0.000000,   0.000000,   0.000000 [a0]

Properties computed using the SCF density matrix

  Nuclear Dipole Moment: [e a0]
     X:     0.0000      Y:     0.0000      Z:     0.0000

  Electronic Dipole Moment: [e a0]
     X:     0.0000      Y:     0.0000      Z:     0.0000

  Dipole Moment: [e a0]
     X:     0.0000      Y:     0.0000      Z:     0.0000     Total:     0.0000

  Dipole Moment: [D]
     X:     0.0000      Y:     0.0000      Z:     0.0000     Total:     0.0000


*** tstop() called on adabbott at Sun Sep  8 20:56:08 2019
Module time:
	user time   =       0.20 seconds =       0.00 minutes
	system time =       0.01 seconds =       0.00 minutes
	total time  =          0 seconds =       0.00 minutes
Total time:
	user time   =       0.20 seconds =       0.00 minutes
	system time =       0.01 seconds =       0.00 minutes
	total time  =          0 seconds =       0.00 minutes

*** tstart() called on adabbott
*** at Sun Sep  8 20:56:08 2019


         ------------------------------------------------------------
                                   SCF GRAD                          
                          Rob Parrish, Justin Turney,                
                       Andy Simmonett, and Alex Sokolov              
         ------------------------------------------------------------

  ==> Geometry <==

    Molecular point group: c1
    Full point group: D_inf_h

    Geometry (in Bohr), charge = 0, multiplicity = 1:

       Center              X                  Y                   Z               Mass       
    ------------   -----------------  -----------------  -----------------  -----------------
         H            0.000000000000     0.000000000000    -0.849220457955     1.007825032230
         H            0.000000000000     0.000000000000     0.849220457955     1.007825032230

  Nuclear repulsion =    0.588775264792897

  ==> Basis Set <==

  Basis Set: ANONYMOUS7737E7A3
    Blend: S_ORB
    Number of shells: 8
    Number of basis function: 8
    Number of Cartesian functions: 8
    Spherical Harmonics?: false
    Max angular momentum: 0

  ==> DirectJKGrad: Integral-Direct SCF Gradients <==

    Gradient:                    1
    J tasked:                  Yes
    K tasked:                  Yes
    wK tasked:                  No
    Integrals threads:           1
    Schwarz Cutoff:          0E+00


  -Total Gradient:
     Atom            X                  Y                   Z
    ------   -----------------  -----------------  -----------------
       1        0.000000000000     0.000000000000    -0.058866931551
       2        0.000000000000     0.000000000000     0.058866931551


*** tstop() called on adabbott at Sun Sep  8 20:56:08 2019
Module time:
	user time   =       0.03 seconds =       0.00 minutes
	system time =       0.00 seconds =       0.00 minutes
	total time  =          0 seconds =       0.00 minutes
Total time:
	user time   =       0.23 seconds =       0.00 minutes
	system time =       0.01 seconds =       0.00 minutes
	total time  =          0 seconds =       0.00 minutes
   => Loading Basis Set <=

    Name: ANONYMOUS7737E7A3
    Role: ORBITAL
    Keyword: None
    atoms 1-2 entry H          line     5 inputblock s_orb 


    Psi4 stopped on: Sunday, 08 September 2019 08:56PM
    Psi4 wall time for execution: 0:00:00.29

*** Psi4 exiting successfully. Buy a developer a beer!
