
    -----------------------------------------------------------------------
          Psi4: An Open-Source Ab Initio Electronic Structure Package
                               Psi4 1.3.2 release

                         Git: Rev {HEAD} ecbda83 


    R. M. Parrish, L. A. Burns, D. G. A. Smith, A. C. Simmonett,
    A. E. DePrince III, E. G. Hohenstein, U. Bozkaya, A. Yu. Sokolov,
    R. Di Remigio, R. M. Richard, J. F. Gonthier, A. M. James,
    H. R. McAlexander, A. Kumar, M. Saitow, X. Wang, B. P. Pritchard,
    P. Verma, H. F. Schaefer III, K. Patkowski, R. A. King, E. F. Valeev,
    F. A. Evangelista, J. M. Turney, T. D. Crawford, and C. D. Sherrill,
    J. Chem. Theory Comput. 13(7) pp 3185--3197 (2017).
    (doi: 10.1021/acs.jctc.7b00174)


                         Additional Contributions by
    P. Kraus, H. Kruse, M. H. Lechner, M. C. Schieber, R. A. Shaw,
    A. Alenaizan, R. Galvelis, Z. L. Glick, S. Lehtola, and J. P. Misiewicz

    -----------------------------------------------------------------------


    Psi4 started on: Saturday, 07 September 2019 05:19PM

    Process ID: 11087
    Host:       adabbott
    PSIDATADIR: /home/adabbott/anaconda3/envs/autodiff/share/psi4
    Memory:     500.0 MiB
    Threads:    1
    
  ==> Input File <==

--------------------------------------------------------------------------
import psi4
import numpy as np

basis {
assign s_orb
[ s_orb ]
cartesian
****
H     0
S   1   1.00
      0.50000000000      1.0000000000
****
}

molecule h2o {
symmetry c1
units bohr
0 1
H 0.000000000000 0.000000000000 -0.849220457955
H 0.000000000000 0.000000000000  0.849220457955
}

set scf_type pk
set mp2_type conv
set puream false
set e_convergence 10
set d_convergence 10
e, wfn = gradient('hf', return_wfn=True, dertype='gradient')
e, mp2wfn = gradient('mp2', return_wfn=True, dertype='gradient')
e, cepawfn = gradient('lccd', return_wfn=True)

print('HF Gradient')
print(np.asarray(wfn.gradient()))
print('MP2 Gradient')
print(np.asarray(mp2wfn.gradient()))
print('CEPA0 Gradient')
print(np.asarray(cepawfn.gradient()))

mol = wfn.molecule()
bs = wfn.basisset()
basis = psi4.core.BasisSet.build(mol)
mints = psi4.core.MintsHelper(basis)
F = np.asarray(wfn.Fa())
np.save('F0', F)


--------------------------------------------------------------------------
gradient() will perform analytic gradient computation.

*** tstart() called on adabbott
*** at Sat Sep  7 17:19:25 2019

   => Loading Basis Set <=

    Name: ANONYMOUSC108BA67
    Role: ORBITAL
    Keyword: BASIS
    atoms 1-2 entry H          line     5 inputblock s_orb 


         ---------------------------------------------------------
                                   SCF
               by Justin Turney, Rob Parrish, Andy Simmonett
                          and Daniel G. A. Smith
                              RHF Reference
                        1 Threads,    500 MiB Core
         ---------------------------------------------------------

  ==> Geometry <==

    Molecular point group: c1
    Full point group: D_inf_h

    Geometry (in Bohr), charge = 0, multiplicity = 1:

       Center              X                  Y                   Z               Mass       
    ------------   -----------------  -----------------  -----------------  -----------------
         H            0.000000000000     0.000000000000    -0.849220457955     1.007825032230
         H            0.000000000000     0.000000000000     0.849220457955     1.007825032230

  Running in c1 symmetry.

  Rotational constants: A = ************  B =     41.41314  C =     41.41314 [cm^-1]
  Rotational constants: A = ************  B = 1241534.81138  C = 1241534.81138 [MHz]
  Nuclear repulsion =    0.588775264792897

  Charge       = 0
  Multiplicity = 1
  Electrons    = 2
  Nalpha       = 1
  Nbeta        = 1

  ==> Algorithm <==

  SCF Algorithm Type is PK.
  DIIS enabled.
  MOM disabled.
  Fractional occupation disabled.
  Guess Type is SAD.
  Energy threshold   = 1.00e-10
  Density threshold  = 1.00e-10
  Integral threshold = 0.00e+00

  ==> Primary Basis <==

  Basis Set: ANONYMOUSC108BA67
    Blend: S_ORB
    Number of shells: 2
    Number of basis function: 2
    Number of Cartesian functions: 2
    Spherical Harmonics?: false
    Max angular momentum: 0

  ==> Pre-Iterations <==

   -------------------------------------------------------
    Irrep   Nso     Nmo     Nalpha   Nbeta   Ndocc  Nsocc
   -------------------------------------------------------
     A          2       2       0       0       0       0
   -------------------------------------------------------
    Total       2       2       1       1       1       0
   -------------------------------------------------------

  ==> Integral Setup <==

  Using in-core PK algorithm.
   Calculation information:
      Number of atoms:                   2
      Number of AO shells:               2
      Number of primitives:              2
      Number of atomic orbitals:         2
      Number of basis functions:         2

      Integral cutoff                 1.00e-12
      Number of threads:                 1

  Performing in-core PK
  Using 12 doubles for integral storage.
  We computed 6 shell quartets total.
  Whereas there are 6 unique shell quartets.

  ==> DiskJK: Disk-Based J/K Matrices <==

    J tasked:                  Yes
    K tasked:                  Yes
    wK tasked:                  No
    Memory [MiB]:              375
    Schwarz Cutoff:          1E-12

    OpenMP threads:              1

  Minimum eigenvalue in the overlap matrix is 5.1381952983E-01.
  Using Symmetric Orthogonalization.

  SCF Guess: Superposition of Atomic Densities via on-the-fly atomic UHF.

  ==> Iterations <==

                        Total Energy        Delta E     RMS |[F,P]|

   @RHF iter SAD:    -0.48556260597445   -4.85563e-01   0.00000e+00 
   @RHF iter   1:    -0.93128301145887   -4.45720e-01   0.00000e+00 DIIS
   @RHF iter   2:    -0.93128301145887    0.00000e+00   0.00000e+00 DIIS
  Energy and wave function converged.


  ==> Post-Iterations <==

    Orbital Energies [Eh]
    ---------------------

    Doubly Occupied:                                                      

       1A     -0.409724  

    Virtual:                                                              

       2A      0.565946  

    Final Occupation by Irrep:
              A 
    DOCC [     1 ]

  @RHF Final Energy:    -0.93128301145887

   => Energetics <=

    Nuclear Repulsion Energy =              0.5887752647928965
    One-Electron Energy =                  -2.2206684676918056
    Two-Electron Energy =                   0.7006101914400428
    Total Energy =                         -0.9312830114588663

Computation Completed


Properties will be evaluated at   0.000000,   0.000000,   0.000000 [a0]

Properties computed using the SCF density matrix

  Nuclear Dipole Moment: [e a0]
     X:     0.0000      Y:     0.0000      Z:     0.0000

  Electronic Dipole Moment: [e a0]
     X:     0.0000      Y:     0.0000      Z:     0.0000

  Dipole Moment: [e a0]
     X:     0.0000      Y:     0.0000      Z:     0.0000     Total:     0.0000

  Dipole Moment: [D]
     X:     0.0000      Y:     0.0000      Z:     0.0000     Total:     0.0000


*** tstop() called on adabbott at Sat Sep  7 17:19:25 2019
Module time:
	user time   =       0.19 seconds =       0.00 minutes
	system time =       0.01 seconds =       0.00 minutes
	total time  =          0 seconds =       0.00 minutes
Total time:
	user time   =       0.19 seconds =       0.00 minutes
	system time =       0.01 seconds =       0.00 minutes
	total time  =          0 seconds =       0.00 minutes

*** tstart() called on adabbott
*** at Sat Sep  7 17:19:25 2019


         ------------------------------------------------------------
                                   SCF GRAD                          
                          Rob Parrish, Justin Turney,                
                       Andy Simmonett, and Alex Sokolov              
         ------------------------------------------------------------

  ==> Geometry <==

    Molecular point group: c1
    Full point group: D_inf_h

    Geometry (in Bohr), charge = 0, multiplicity = 1:

       Center              X                  Y                   Z               Mass       
    ------------   -----------------  -----------------  -----------------  -----------------
         H            0.000000000000     0.000000000000    -0.849220457955     1.007825032230
         H            0.000000000000     0.000000000000     0.849220457955     1.007825032230

  Nuclear repulsion =    0.588775264792897

  ==> Basis Set <==

  Basis Set: ANONYMOUSC108BA67
    Blend: S_ORB
    Number of shells: 2
    Number of basis function: 2
    Number of Cartesian functions: 2
    Spherical Harmonics?: false
    Max angular momentum: 0

  ==> DirectJKGrad: Integral-Direct SCF Gradients <==

    Gradient:                    1
    J tasked:                  Yes
    K tasked:                  Yes
    wK tasked:                  No
    Integrals threads:           1
    Schwarz Cutoff:          0E+00


  -Total Gradient:
     Atom            X                  Y                   Z
    ------   -----------------  -----------------  -----------------
       1        0.000000000000     0.000000000000    -0.126902840318
       2        0.000000000000     0.000000000000     0.126902840318


*** tstop() called on adabbott at Sat Sep  7 17:19:25 2019
Module time:
	user time   =       0.02 seconds =       0.00 minutes
	system time =       0.00 seconds =       0.00 minutes
	total time  =          0 seconds =       0.00 minutes
Total time:
	user time   =       0.22 seconds =       0.00 minutes
	system time =       0.01 seconds =       0.00 minutes
	total time  =          0 seconds =       0.00 minutes
gradient() will perform analytic gradient computation.

*** tstart() called on adabbott
*** at Sat Sep  7 17:19:25 2019

   => Loading Basis Set <=

    Name: ANONYMOUSC108BA67
    Role: ORBITAL
    Keyword: BASIS
    atoms 1-2 entry H          line     5 inputblock s_orb 


         ---------------------------------------------------------
                                   SCF
               by Justin Turney, Rob Parrish, Andy Simmonett
                          and Daniel G. A. Smith
                              RHF Reference
                        1 Threads,    500 MiB Core
         ---------------------------------------------------------

  ==> Geometry <==

    Molecular point group: c1
    Full point group: D_inf_h

    Geometry (in Bohr), charge = 0, multiplicity = 1:

       Center              X                  Y                   Z               Mass       
    ------------   -----------------  -----------------  -----------------  -----------------
         H            0.000000000000     0.000000000000    -0.849220457955     1.007825032230
         H            0.000000000000     0.000000000000     0.849220457955     1.007825032230

  Running in c1 symmetry.

  Rotational constants: A = ************  B =     41.41314  C =     41.41314 [cm^-1]
  Rotational constants: A = ************  B = 1241534.81138  C = 1241534.81138 [MHz]
  Nuclear repulsion =    0.588775264792897

  Charge       = 0
  Multiplicity = 1
  Electrons    = 2
  Nalpha       = 1
  Nbeta        = 1

  ==> Algorithm <==

  SCF Algorithm Type is PK.
  DIIS enabled.
  MOM disabled.
  Fractional occupation disabled.
  Guess Type is SAD.
  Energy threshold   = 1.00e-10
  Density threshold  = 1.00e-10
  Integral threshold = 0.00e+00

  ==> Primary Basis <==

  Basis Set: ANONYMOUSC108BA67
    Blend: S_ORB
    Number of shells: 2
    Number of basis function: 2
    Number of Cartesian functions: 2
    Spherical Harmonics?: false
    Max angular momentum: 0

  ==> Pre-Iterations <==

   -------------------------------------------------------
    Irrep   Nso     Nmo     Nalpha   Nbeta   Ndocc  Nsocc
   -------------------------------------------------------
     A          2       2       0       0       0       0
   -------------------------------------------------------
    Total       2       2       1       1       1       0
   -------------------------------------------------------

  ==> Integral Setup <==

  Using in-core PK algorithm.
   Calculation information:
      Number of atoms:                   2
      Number of AO shells:               2
      Number of primitives:              2
      Number of atomic orbitals:         2
      Number of basis functions:         2

      Integral cutoff                 1.00e-12
      Number of threads:                 1

  Performing in-core PK
  Using 12 doubles for integral storage.
  We computed 6 shell quartets total.
  Whereas there are 6 unique shell quartets.

  ==> DiskJK: Disk-Based J/K Matrices <==

    J tasked:                  Yes
    K tasked:                  Yes
    wK tasked:                  No
    Memory [MiB]:              375
    Schwarz Cutoff:          1E-12

    OpenMP threads:              1

  Minimum eigenvalue in the overlap matrix is 5.1381952983E-01.
  Using Symmetric Orthogonalization.

  SCF Guess: Superposition of Atomic Densities via on-the-fly atomic UHF.

  ==> Iterations <==

                        Total Energy        Delta E     RMS |[F,P]|

   @RHF iter SAD:    -0.48556260597445   -4.85563e-01   0.00000e+00 
   @RHF iter   1:    -0.93128301145887   -4.45720e-01   0.00000e+00 DIIS
   @RHF iter   2:    -0.93128301145887    0.00000e+00   0.00000e+00 DIIS
  Energy and wave function converged.


  ==> Post-Iterations <==

    Orbital Energies [Eh]
    ---------------------

    Doubly Occupied:                                                      

       1A     -0.409724  

    Virtual:                                                              

       2A      0.565946  

    Final Occupation by Irrep:
              A 
    DOCC [     1 ]

  @RHF Final Energy:    -0.93128301145887

   => Energetics <=

    Nuclear Repulsion Energy =              0.5887752647928965
    One-Electron Energy =                  -2.2206684676918056
    Two-Electron Energy =                   0.7006101914400428
    Total Energy =                         -0.9312830114588663

Computation Completed


Properties will be evaluated at   0.000000,   0.000000,   0.000000 [a0]

Properties computed using the SCF density matrix

  Nuclear Dipole Moment: [e a0]
     X:     0.0000      Y:     0.0000      Z:     0.0000

  Electronic Dipole Moment: [e a0]
     X:     0.0000      Y:     0.0000      Z:     0.0000

  Dipole Moment: [e a0]
     X:     0.0000      Y:     0.0000      Z:     0.0000     Total:     0.0000

  Dipole Moment: [D]
     X:     0.0000      Y:     0.0000      Z:     0.0000     Total:     0.0000


*** tstop() called on adabbott at Sat Sep  7 17:19:25 2019
Module time:
	user time   =       0.18 seconds =       0.00 minutes
	system time =       0.00 seconds =       0.00 minutes
	total time  =          0 seconds =       0.00 minutes
Total time:
	user time   =       0.41 seconds =       0.01 minutes
	system time =       0.01 seconds =       0.00 minutes
	total time  =          0 seconds =       0.00 minutes
 MINTS: Wrapper to libmints.
   by Justin Turney

   Calculation information:
      Number of threads:                 1
      Number of atoms:                   2
      Number of AO shells:               2
      Number of SO shells:               2
      Number of primitives:              2
      Number of atomic orbitals:         2
      Number of basis functions:         2

      Number of irreps:                  1
      Integral cutoff                 0.00e+00
      Number of functions per irrep: [   2 ]

 OEINTS: Overlap, kinetic, potential, dipole, and quadrupole integrals
         stored in file 35.

      Computing two-electron integrals...done
      Computed 6 non-zero two-electron integrals.
        Stored in file 33.


*** tstart() called on adabbott
*** at Sat Sep  7 17:19:25 2019


 ============================================================================== 
 ============================================================================== 
 ============================================================================== 

                       MP2   
              Program Written by Ugur Bozkaya,
              Latest Revision June 25, 2014.

 ============================================================================== 
 ============================================================================== 
 ============================================================================== 

	RMS orbital gradient is changed to :     1.00e-07
	MAX orbital gradient is changed to :     1.00e-04
	MO spaces per irreps... 

	IRREP   FC    OCC   VIR  FV 
	==============================
	   A     0     1     1    0
	==============================

	Memory is    524 MB 
	Cost of iabc is      0 MB 
	Cost of abcd is      0 MB 
	Switching to the incore algorithm for iabc..
	Switching to the incore algorithm for abcd..

	Computing MP2 energy using SCF MOs (Canonical MP2)... 
	============================================================================== 
	Nuclear Repulsion Energy (a.u.)    :     0.58877526479290
	SCF Energy (a.u.)                  :    -0.93128301145887
	REF Energy (a.u.)                  :    -0.93128301145887
	Alpha-Alpha Contribution (a.u.)    :     0.00000000000000
	Alpha-Beta Contribution (a.u.)     :    -0.01505393734982
	Beta-Beta Contribution (a.u.)      :     0.00000000000000
	Scaled_SS Correlation Energy (a.u.):     0.00000000000000
	Scaled_OS Correlation Energy (a.u.):    -0.01806472481978
	SCS-MP2 Total Energy (a.u.)        :    -0.94934773627864
	SOS-MP2 Total Energy (a.u.)        :    -0.93128301145887
	SCSN-MP2 Total Energy (a.u.)       :    -0.93128301145887
	SCS-MP2-VDW Total Energy (a.u.)    :    -0.95055205126663
	SOS-PI-MP2 Total Energy (a.u.)     :    -0.95235852374861
	MP2 Correlation Energy (a.u.)      :    -0.01505393734982
	MP2 Total Energy (a.u.)            :    -0.94633694880868
	============================================================================== 
	Analytic gradient computation is starting...
	Computing response density matrices...
	Computing off-diagonal blocks of GFM...
	Forming independent-pairs...
	Number of independent-pairs:   1
	Computing orbital gradient...
	Computing diagonal blocks of GFM...
	Solving orbital Z-vector equations...
	Forming relaxed response density matrices...
	Forming relaxed GFM...
	Writing particle density matrices and GFM to disk...
	Necessary information has been sent to DERIV, which will take care of the rest.

*** tstop() called on adabbott at Sat Sep  7 17:19:25 2019
Module time:
	user time   =       0.00 seconds =       0.00 minutes
	system time =       0.00 seconds =       0.00 minutes
	total time  =          0 seconds =       0.00 minutes
Total time:
	user time   =       0.42 seconds =       0.01 minutes
	system time =       0.02 seconds =       0.00 minutes
	total time  =          0 seconds =       0.00 minutes
  Cartesian Displacement SALCs
  By SALC:
  Number of SALCs: 6, nirreps: A
  Project out translations: False
  Project out rotations: False
	irrep = 0, ncomponent = 1
		0: atom 0, direction x, coef 1.000000
	irrep = 0, ncomponent = 1
		0: atom 0, direction y, coef 1.000000
	irrep = 0, ncomponent = 1
		0: atom 0, direction z, coef 1.000000
	irrep = 0, ncomponent = 1
		0: atom 1, direction x, coef 1.000000
	irrep = 0, ncomponent = 1
		0: atom 1, direction y, coef 1.000000
	irrep = 0, ncomponent = 1
		0: atom 1, direction z, coef 1.000000

  By Atomic Center:
  Number of atomic centers: 2
   Atomic Center 0:
	x component, size = 1
		0: salc 0, irrep 0, coef 1.000000
	y component, size = 1
		0: salc 1, irrep 0, coef 1.000000
	z component, size = 1
		0: salc 2, irrep 0, coef 1.000000
   Atomic Center 1:
	x component, size = 1
		0: salc 3, irrep 0, coef 1.000000
	y component, size = 1
		0: salc 4, irrep 0, coef 1.000000
	z component, size = 1
		0: salc 5, irrep 0, coef 1.000000

    Molecular point group: c1
    Full point group: D_inf_h

    Geometry (in Bohr), charge = 0, multiplicity = 1:

       Center              X                  Y                   Z       
    ------------   -----------------  -----------------  -----------------
         H            0.000000000000     0.000000000000    -0.849220457955
         H            0.000000000000     0.000000000000     0.849220457955

	Presorting MO-basis TPDM.
	Sorting File: MO TPDM (AA|AA) nbuckets = 1
	Starting first half-transformation.
	Sorting half-transformed TPDM.
	First half integral transformation complete.


  -Nuclear Repulsion Energy 1st Derivatives:
     Atom            X                  Y                   Z
    ------   -----------------  -----------------  -----------------
       1        0.000000000000     0.000000000000     0.346656312432
       2        0.000000000000     0.000000000000    -0.346656312432


  -Core Hamiltonian Gradient:
     Atom            X                  Y                   Z
    ------   -----------------  -----------------  -----------------
       1        0.000000000000     0.000000000000    -1.181038643987
       2        0.000000000000     0.000000000000     1.181038643987


  -Lagrangian contribution to gradient:
     Atom            X                  Y                   Z
    ------   -----------------  -----------------  -----------------
       1        0.000000000000     0.000000000000     0.215448829280
       2        0.000000000000     0.000000000000    -0.215448829280


  -Two-electron contribution to gradient:
     Atom            X                  Y                   Z
    ------   -----------------  -----------------  -----------------
       1        0.000000000000     0.000000000000     0.506691730630
       2        0.000000000000     0.000000000000    -0.506691730630


  -Total gradient:
     Atom            X                  Y                   Z
    ------   -----------------  -----------------  -----------------
       1        0.000000000000     0.000000000000    -0.112241771645
       2        0.000000000000     0.000000000000     0.112241771645

gradient() will perform analytic gradient computation.

*** tstart() called on adabbott
*** at Sat Sep  7 17:19:25 2019

   => Loading Basis Set <=

    Name: ANONYMOUSC108BA67
    Role: ORBITAL
    Keyword: BASIS
    atoms 1-2 entry H          line     5 inputblock s_orb 


         ---------------------------------------------------------
                                   SCF
               by Justin Turney, Rob Parrish, Andy Simmonett
                          and Daniel G. A. Smith
                              RHF Reference
                        1 Threads,    500 MiB Core
         ---------------------------------------------------------

  ==> Geometry <==

    Molecular point group: c1
    Full point group: D_inf_h

    Geometry (in Bohr), charge = 0, multiplicity = 1:

       Center              X                  Y                   Z               Mass       
    ------------   -----------------  -----------------  -----------------  -----------------
         H            0.000000000000     0.000000000000    -0.849220457955     1.007825032230
         H            0.000000000000     0.000000000000     0.849220457955     1.007825032230

  Running in c1 symmetry.

  Rotational constants: A = ************  B =     41.41314  C =     41.41314 [cm^-1]
  Rotational constants: A = ************  B = 1241534.81138  C = 1241534.81138 [MHz]
  Nuclear repulsion =    0.588775264792897

  Charge       = 0
  Multiplicity = 1
  Electrons    = 2
  Nalpha       = 1
  Nbeta        = 1

  ==> Algorithm <==

  SCF Algorithm Type is PK.
  DIIS enabled.
  MOM disabled.
  Fractional occupation disabled.
  Guess Type is SAD.
  Energy threshold   = 1.00e-10
  Density threshold  = 1.00e-10
  Integral threshold = 0.00e+00

  ==> Primary Basis <==

  Basis Set: ANONYMOUSC108BA67
    Blend: S_ORB
    Number of shells: 2
    Number of basis function: 2
    Number of Cartesian functions: 2
    Spherical Harmonics?: false
    Max angular momentum: 0

  ==> Pre-Iterations <==

   -------------------------------------------------------
    Irrep   Nso     Nmo     Nalpha   Nbeta   Ndocc  Nsocc
   -------------------------------------------------------
     A          2       2       0       0       0       0
   -------------------------------------------------------
    Total       2       2       1       1       1       0
   -------------------------------------------------------

  ==> Integral Setup <==

  Using in-core PK algorithm.
   Calculation information:
      Number of atoms:                   2
      Number of AO shells:               2
      Number of primitives:              2
      Number of atomic orbitals:         2
      Number of basis functions:         2

      Integral cutoff                 1.00e-12
      Number of threads:                 1

  Performing in-core PK
  Using 12 doubles for integral storage.
  We computed 6 shell quartets total.
  Whereas there are 6 unique shell quartets.

  ==> DiskJK: Disk-Based J/K Matrices <==

    J tasked:                  Yes
    K tasked:                  Yes
    wK tasked:                  No
    Memory [MiB]:              375
    Schwarz Cutoff:          1E-12

    OpenMP threads:              1

  Minimum eigenvalue in the overlap matrix is 5.1381952983E-01.
  Using Symmetric Orthogonalization.

  SCF Guess: Superposition of Atomic Densities via on-the-fly atomic UHF.

  ==> Iterations <==

                        Total Energy        Delta E     RMS |[F,P]|

   @RHF iter SAD:    -0.48556260597445   -4.85563e-01   0.00000e+00 
   @RHF iter   1:    -0.93128301145887   -4.45720e-01   0.00000e+00 DIIS
   @RHF iter   2:    -0.93128301145887    0.00000e+00   0.00000e+00 DIIS
  Energy and wave function converged.


  ==> Post-Iterations <==

    Orbital Energies [Eh]
    ---------------------

    Doubly Occupied:                                                      

       1A     -0.409724  

    Virtual:                                                              

       2A      0.565946  

    Final Occupation by Irrep:
              A 
    DOCC [     1 ]

  @RHF Final Energy:    -0.93128301145887

   => Energetics <=

    Nuclear Repulsion Energy =              0.5887752647928965
    One-Electron Energy =                  -2.2206684676918056
    Two-Electron Energy =                   0.7006101914400428
    Total Energy =                         -0.9312830114588663

Computation Completed


Properties will be evaluated at   0.000000,   0.000000,   0.000000 [a0]

Properties computed using the SCF density matrix

  Nuclear Dipole Moment: [e a0]
     X:     0.0000      Y:     0.0000      Z:     0.0000

  Electronic Dipole Moment: [e a0]
     X:     0.0000      Y:     0.0000      Z:     0.0000

  Dipole Moment: [e a0]
     X:     0.0000      Y:     0.0000      Z:     0.0000     Total:     0.0000

  Dipole Moment: [D]
     X:     0.0000      Y:     0.0000      Z:     0.0000     Total:     0.0000


*** tstop() called on adabbott at Sat Sep  7 17:19:25 2019
Module time:
	user time   =       0.19 seconds =       0.00 minutes
	system time =       0.00 seconds =       0.00 minutes
	total time  =          0 seconds =       0.00 minutes
Total time:
	user time   =       0.63 seconds =       0.01 minutes
	system time =       0.03 seconds =       0.00 minutes
	total time  =          0 seconds =       0.00 minutes
 MINTS: Wrapper to libmints.
   by Justin Turney

   Calculation information:
      Number of threads:                 1
      Number of atoms:                   2
      Number of AO shells:               2
      Number of SO shells:               2
      Number of primitives:              2
      Number of atomic orbitals:         2
      Number of basis functions:         2

      Number of irreps:                  1
      Integral cutoff                 0.00e+00
      Number of functions per irrep: [   2 ]

 OEINTS: Overlap, kinetic, potential, dipole, and quadrupole integrals
         stored in file 35.

      Computing two-electron integrals...done
      Computed 6 non-zero two-electron integrals.
        Stored in file 33.


*** tstart() called on adabbott
*** at Sat Sep  7 17:19:25 2019


 ============================================================================== 
 ============================================================================== 
 ============================================================================== 

                       CEPA   
              Program Written by Ugur Bozkaya,
              Latest Revision June 25, 2014.

 ============================================================================== 
 ============================================================================== 
 ============================================================================== 

	RMS orbital gradient is changed to :     1.00e-07
	MAX orbital gradient is changed to :     1.00e-04
	MO spaces per irreps... 

	IRREP   FC    OCC   VIR  FV 
	==============================
	   A     0     1     1    0
	==============================

	Computing MP2 energy using SCF MOs (Canonical MP2)... 
	============================================================================== 
	Nuclear Repulsion Energy (a.u.)    :     0.58877526479290
	SCF Energy (a.u.)                  :    -0.93128301145887
	REF Energy (a.u.)                  :    -0.93128301145887
	Alpha-Alpha Contribution (a.u.)    :     0.00000000000000
	Alpha-Beta Contribution (a.u.)     :    -0.01505393734982
	Beta-Beta Contribution (a.u.)      :     0.00000000000000
	Scaled_SS Correlation Energy (a.u.):     0.00000000000000
	Scaled_OS Correlation Energy (a.u.):    -0.01806472481978
	SCS-MP2 Total Energy (a.u.)        :    -0.94934773627864
	SOS-MP2 Total Energy (a.u.)        :    -0.95085313001363
	SCSN-MP2 Total Energy (a.u.)       :    -0.93128301145887
	SCS-MP2-VDW Total Energy (a.u.)    :    -0.95055205126663
	SOS-PI-MP2 Total Energy (a.u.)     :    -0.95235852374861
	MP2 Correlation Energy (a.u.)      :    -0.01505393734982
	MP2 Total Energy (a.u.)            :    -0.94633694880868
	============================================================================== 

  
 ============================================================================== 
 ================ Performing CEPA iterations... =============================== 
 ============================================================================== 

  Iter    E_corr           E_total            DE           T2 RMS        
  ----   -------------    ---------------    ----------   ----------    
   1     -0.0215524686    -0.9528354800     -6.50e-03     3.79e-02 
   2     -0.0264886350    -0.9577716465     -4.94e-03     1.64e-02 
   3     -0.0264886350    -0.9577716465      0.00e+00     2.78e-17 

 ============================================================================== 
 ======================== CEPA ITERATIONS ARE CONVERGED ======================= 
 ============================================================================== 

	============================================================================== 
	================ CEPA FINAL RESULTS ========================================== 
	============================================================================== 
	Nuclear Repulsion Energy (a.u.)    :     0.58877526479290
	SCF Energy (a.u.)                  :    -0.93128301145887
	REF Energy (a.u.)                  :    -0.93128301145887
	CEPA(0) Correlation Energy (a.u.)  :    -0.02648863499316
	CEPA(0) Total Energy (a.u.)        :    -0.95777164645203
	============================================================================== 

	Analytic gradient computation is starting...
	Computing response density matrices...
	Computing off-diagonal blocks of GFM...
	Forming independent-pairs...
	Number of independent-pairs:   1
	Computing orbital gradient...
	Computing G_abcd...
	Computing diagonal blocks of GFM...
	Solving orbital Z-vector equations...
	Forming relaxed response density matrices...
	Forming relaxed GFM...
	Writing particle density matrices and GFM to disk...
	Necessary information has been sent to DERIV, which will take care of the rest.

*** tstop() called on adabbott at Sat Sep  7 17:19:25 2019
Module time:
	user time   =       0.01 seconds =       0.00 minutes
	system time =       0.00 seconds =       0.00 minutes
	total time  =          0 seconds =       0.00 minutes
Total time:
	user time   =       0.65 seconds =       0.01 minutes
	system time =       0.03 seconds =       0.00 minutes
	total time  =          0 seconds =       0.00 minutes
  Cartesian Displacement SALCs
  By SALC:
  Number of SALCs: 6, nirreps: A
  Project out translations: False
  Project out rotations: False
	irrep = 0, ncomponent = 1
		0: atom 0, direction x, coef 1.000000
	irrep = 0, ncomponent = 1
		0: atom 0, direction y, coef 1.000000
	irrep = 0, ncomponent = 1
		0: atom 0, direction z, coef 1.000000
	irrep = 0, ncomponent = 1
		0: atom 1, direction x, coef 1.000000
	irrep = 0, ncomponent = 1
		0: atom 1, direction y, coef 1.000000
	irrep = 0, ncomponent = 1
		0: atom 1, direction z, coef 1.000000

  By Atomic Center:
  Number of atomic centers: 2
   Atomic Center 0:
	x component, size = 1
		0: salc 0, irrep 0, coef 1.000000
	y component, size = 1
		0: salc 1, irrep 0, coef 1.000000
	z component, size = 1
		0: salc 2, irrep 0, coef 1.000000
   Atomic Center 1:
	x component, size = 1
		0: salc 3, irrep 0, coef 1.000000
	y component, size = 1
		0: salc 4, irrep 0, coef 1.000000
	z component, size = 1
		0: salc 5, irrep 0, coef 1.000000

    Molecular point group: c1
    Full point group: D_inf_h

    Geometry (in Bohr), charge = 0, multiplicity = 1:

       Center              X                  Y                   Z       
    ------------   -----------------  -----------------  -----------------
         H            0.000000000000     0.000000000000    -0.849220457955
         H            0.000000000000     0.000000000000     0.849220457955

	Presorting MO-basis TPDM.
	Sorting File: MO TPDM (AA|AA) nbuckets = 1
	Starting first half-transformation.
	Sorting half-transformed TPDM.
	First half integral transformation complete.


  -Nuclear Repulsion Energy 1st Derivatives:
     Atom            X                  Y                   Z
    ------   -----------------  -----------------  -----------------
       1        0.000000000000     0.000000000000     0.346656312432
       2        0.000000000000     0.000000000000    -0.346656312432


  -Core Hamiltonian Gradient:
     Atom            X                  Y                   Z
    ------   -----------------  -----------------  -----------------
       1        0.000000000000     0.000000000000    -1.143837644271
       2        0.000000000000     0.000000000000     1.143837644271


  -Lagrangian contribution to gradient:
     Atom            X                  Y                   Z
    ------   -----------------  -----------------  -----------------
       1        0.000000000000     0.000000000000     0.198374687316
       2        0.000000000000     0.000000000000    -0.198374687316


  -Two-electron contribution to gradient:
     Atom            X                  Y                   Z
    ------   -----------------  -----------------  -----------------
       1        0.000000000000     0.000000000000     0.504145858539
       2        0.000000000000     0.000000000000    -0.504145858539


  -Total gradient:
     Atom            X                  Y                   Z
    ------   -----------------  -----------------  -----------------
       1        0.000000000000     0.000000000000    -0.094660785984
       2        0.000000000000     0.000000000000     0.094660785984

   => Loading Basis Set <=

    Name: ANONYMOUSC108BA67
    Role: ORBITAL
    Keyword: None
    atoms 1-2 entry H          line     5 inputblock s_orb 


    Psi4 stopped on: Saturday, 07 September 2019 05:19PM
    Psi4 wall time for execution: 0:00:00.76

*** Psi4 exiting successfully. Buy a developer a beer!
