
    -----------------------------------------------------------------------
          Psi4: An Open-Source Ab Initio Electronic Structure Package
                               Psi4 1.3.2 release

                         Git: Rev {HEAD} ecbda83 


    R. M. Parrish, L. A. Burns, D. G. A. Smith, A. C. Simmonett,
    A. E. DePrince III, E. G. Hohenstein, U. Bozkaya, A. Yu. Sokolov,
    R. Di Remigio, R. M. Richard, J. F. Gonthier, A. M. James,
    H. R. McAlexander, A. Kumar, M. Saitow, X. Wang, B. P. Pritchard,
    P. Verma, H. F. Schaefer III, K. Patkowski, R. A. King, E. F. Valeev,
    F. A. Evangelista, J. M. Turney, T. D. Crawford, and C. D. Sherrill,
    J. Chem. Theory Comput. 13(7) pp 3185--3197 (2017).
    (doi: 10.1021/acs.jctc.7b00174)


                         Additional Contributions by
    P. Kraus, H. Kruse, M. H. Lechner, M. C. Schieber, R. A. Shaw,
    A. Alenaizan, R. Galvelis, Z. L. Glick, S. Lehtola, and J. P. Misiewicz

    -----------------------------------------------------------------------


    Psi4 started on: Tuesday, 26 November 2019 03:55PM

    Process ID: 1132
    Host:       adabbott
    PSIDATADIR: /home/adabbott/anaconda3/envs/psijax/share/psi4
    Memory:     500.0 MiB
    Threads:    1
    
  ==> Input File <==

--------------------------------------------------------------------------
import psi4
import numpy as np

basis {
assign H1 test1
assign H2 test2
assign H3 test3
assign H4 test4
[ test1 ]
cartesian
****
H     0
S   1   1.00
      0.20000000000      1.0000000000
P   1   1.00
      0.20000000000      1.0000000000
****
[ test2 ]
cartesian
****
H     0
S   1   1.00
      0.30000000000      1.0000000000
P   1   1.00
      0.30000000000      1.0000000000
****
[ test3 ]
cartesian
****
H     0
S   1   1.00
      0.40000000000      1.0000000000
P   1   1.00
      0.40000000000      1.0000000000
****
[ test4 ]
cartesian
****
H     0
S   1   1.00
      0.50000000000      1.0000000000
P   1   1.00
      0.50000000000      1.0000000000
****
}

molecule h2o {
symmetry c1
units bohr
0 1
H1       -0.4939594255     -0.2251760374      0.3240754142                 
H2        0.4211401526      1.8106751596     -0.1734137286                 
H3       -0.5304044183      1.5987236612      2.0935583523                 
H4        1.9190079941      0.0838367286      1.4064021040                 
}

set scf_type pk
set puream false
set e_convergence 10
set d_convergence 10
e, wfn = energy('hf', return_wfn=True)

mol = wfn.molecule()
bs = wfn.basisset()
basis = psi4.core.BasisSet.build(mol)
mints = psi4.core.MintsHelper(basis)

print("Normalization constant atom 1 S", basis.shell(0).coef(0))
print("Normalization constant atom 1 P", basis.shell(1).coef(0))

print("Normalization constant atom 2 S", basis.shell(2).coef(0))
print("Normalization constant atom 2 P", basis.shell(3).coef(0))

print("Normalization constant atom 3 S", basis.shell(4).coef(0))
print("Normalization constant atom 3 P", basis.shell(5).coef(0))

print("Normalization constant atom 4 S", basis.shell(6).coef(0))
print("Normalization constant atom 4 P", basis.shell(7).coef(0))

G = mints.ao_eri()
G = np.asarray(G)
print(G.shape)
print(G[1,4,8,12])


--------------------------------------------------------------------------

*** tstart() called on adabbott
*** at Tue Nov 26 15:55:44 2019

   => Loading Basis Set <=

    Name: ANONYMOUS9CEA7DAE
    Role: ORBITAL
    Keyword: BASIS
    atoms 1 entry H          line     5 inputblock test1 
    atoms 2 entry H          line     5 inputblock test2 
    atoms 3 entry H          line     5 inputblock test3 
    atoms 4 entry H          line     5 inputblock test4 


         ---------------------------------------------------------
                                   SCF
               by Justin Turney, Rob Parrish, Andy Simmonett
                          and Daniel G. A. Smith
                              RHF Reference
                        1 Threads,    500 MiB Core
         ---------------------------------------------------------

  ==> Geometry <==

    Molecular point group: c1
    Full point group: C1

    Geometry (in Bohr), charge = 0, multiplicity = 1:

       Center              X                  Y                   Z               Mass       
    ------------   -----------------  -----------------  -----------------  -----------------
         H           -0.822905501225    -1.042190915400    -0.588580121275     1.007825032230
         H            0.092194076875     0.993660281600    -1.086069264075     1.007825032230
         H           -0.859350494025     0.781708783200     1.180902816825     1.007825032230
         H            1.590061918375    -0.733178149400     0.493746568525     1.007825032230

  Running in c1 symmetry.

  Rotational constants: A =     10.32178  B =      8.37551  C =      7.69847 [cm^-1]
  Rotational constants: A = 309439.14895  B = 251091.39587  C = 230794.47416 [MHz]
  Nuclear repulsion =    2.309188456497630

  Charge       = 0
  Multiplicity = 1
  Electrons    = 4
  Nalpha       = 2
  Nbeta        = 2

  ==> Algorithm <==

  SCF Algorithm Type is PK.
  DIIS enabled.
  MOM disabled.
  Fractional occupation disabled.
  Guess Type is SAD.
  Energy threshold   = 1.00e-10
  Density threshold  = 1.00e-10
  Integral threshold = 0.00e+00

  ==> Primary Basis <==

  Basis Set: ANONYMOUS9CEA7DAE
    Blend: TEST1 + TEST2 + TEST3 + TEST4
    Number of shells: 8
    Number of basis function: 16
    Number of Cartesian functions: 16
    Spherical Harmonics?: false
    Max angular momentum: 1

  ==> Pre-Iterations <==

   -------------------------------------------------------
    Irrep   Nso     Nmo     Nalpha   Nbeta   Ndocc  Nsocc
   -------------------------------------------------------
     A         16      16       0       0       0       0
   -------------------------------------------------------
    Total      16      16       2       2       2       0
   -------------------------------------------------------

  ==> Integral Setup <==

  Using in-core PK algorithm.
   Calculation information:
      Number of atoms:                   4
      Number of AO shells:               8
      Number of primitives:              8
      Number of atomic orbitals:        16
      Number of basis functions:        16

      Integral cutoff                 1.00e-12
      Number of threads:                 1

  Performing in-core PK
  Using 18632 doubles for integral storage.
  We computed 666 shell quartets total.
  Whereas there are 666 unique shell quartets.

  ==> DiskJK: Disk-Based J/K Matrices <==

    J tasked:                  Yes
    K tasked:                  Yes
    wK tasked:                  No
    Memory [MiB]:              375
    Schwarz Cutoff:          1E-12

    OpenMP threads:              1

  Minimum eigenvalue in the overlap matrix is 4.1314551654E-02.
  Using Symmetric Orthogonalization.

  SCF Guess: Superposition of Atomic Densities via on-the-fly atomic UHF.

  ==> Iterations <==

                        Total Energy        Delta E     RMS |[F,P]|

   @RHF iter SAD:    -1.25813850363383   -1.25814e+00   0.00000e+00 
   @RHF iter   1:    -1.60429227418215   -3.46154e-01   6.48862e-03 DIIS
   @RHF iter   2:    -1.61833968746150   -1.40474e-02   1.23981e-03 DIIS
   @RHF iter   3:    -1.61923373546397   -8.94048e-04   5.89646e-04 DIIS
   @RHF iter   4:    -1.61969651696369   -4.62781e-04   3.42619e-04 DIIS
   @RHF iter   5:    -1.61998636679568   -2.89850e-04   2.18894e-04 DIIS
   @RHF iter   6:    -1.62017633405432   -1.89967e-04   7.64412e-05 DIIS
   @RHF iter   7:    -1.62019012483555   -1.37908e-05   4.37059e-05 DIIS
   @RHF iter   8:    -1.62019549042107   -5.36559e-06   1.42092e-05 DIIS
   @RHF iter   9:    -1.62019591459264   -4.24172e-07   1.69212e-06 DIIS
   @RHF iter  10:    -1.62019591733294   -2.74030e-09   2.49132e-07 DIIS
   @RHF iter  11:    -1.62019591736828   -3.53353e-11   3.44871e-08 DIIS
   @RHF iter  12:    -1.62019591736921   -9.29035e-13   9.14629e-09 DIIS
   @RHF iter  13:    -1.62019591736927   -5.75096e-14   9.81118e-10 DIIS
   @RHF iter  14:    -1.62019591736927   -5.10703e-15   1.12586e-10 DIIS
   @RHF iter  15:    -1.62019591736927    0.00000e+00   2.16712e-11 DIIS
  Energy and wave function converged.


  ==> Post-Iterations <==

    Orbital Energies [Eh]
    ---------------------

    Doubly Occupied:                                                      

       1A     -0.584733     2A     -0.170013  

    Virtual:                                                              

       3A      0.154615     4A      0.159488     5A      0.538272  
       6A      0.554900     7A      0.628249     8A      0.717042  
       9A      0.733025    10A      0.866876    11A      0.909362  
      12A      1.086672    13A      1.234755    14A      1.313228  
      15A      1.389207    16A      1.453167  

    Final Occupation by Irrep:
              A 
    DOCC [     2 ]

  @RHF Final Energy:    -1.62019591736927

   => Energetics <=

    Nuclear Repulsion Energy =              2.3091884564976302
    One-Electron Energy =                  -6.3492777620858876
    Two-Electron Energy =                   2.4198933882189850
    Total Energy =                         -1.6201959173692719

Computation Completed


Properties will be evaluated at   0.000000,   0.000000,   0.000000 [a0]

Properties computed using the SCF density matrix

  Nuclear Dipole Moment: [e a0]
     X:     0.0000      Y:    -0.0000      Z:     0.0000

  Electronic Dipole Moment: [e a0]
     X:    -0.0978      Y:     0.2961      Z:    -0.0732

  Dipole Moment: [e a0]
     X:    -0.0978      Y:     0.2961      Z:    -0.0732     Total:     0.3203

  Dipole Moment: [D]
     X:    -0.2486      Y:     0.7525      Z:    -0.1861     Total:     0.8141


*** tstop() called on adabbott at Tue Nov 26 15:55:44 2019
Module time:
	user time   =       0.28 seconds =       0.00 minutes
	system time =       0.00 seconds =       0.00 minutes
	total time  =          0 seconds =       0.00 minutes
Total time:
	user time   =       0.28 seconds =       0.00 minutes
	system time =       0.00 seconds =       0.00 minutes
	total time  =          0 seconds =       0.00 minutes
   => Loading Basis Set <=

    Name: ANONYMOUS9CEA7DAE
    Role: ORBITAL
    Keyword: None
    atoms 1 entry H          line     5 inputblock test1 
    atoms 2 entry H          line     5 inputblock test2 
    atoms 3 entry H          line     5 inputblock test3 
    atoms 4 entry H          line     5 inputblock test4 


    Psi4 stopped on: Tuesday, 26 November 2019 03:55PM
    Psi4 wall time for execution: 0:00:00.34

*** Psi4 exiting successfully. Buy a developer a beer!
